MPI startup(): I_MPI_DAPL_UD_TRANSLATION_CACHE variable has been removed from the product, its value is ignored

MPI startup(): I_MPI_OFA_TRANSLATION_CACHE variable has been removed from the product, its value is ignored

MPI startup(): I_MPI_DAPL_TRANSLATION_CACHE variable has been removed from the product, its value is ignored

 +---------------------------------------------------------------+
 |                                                               |
 |        ####### #     # ####### ####### ####### ######         |
 |        #     # ##    # #          #    #       #     #        |
 |        #     # # #   # #          #    #       #     #        |
 |        #     # #  #  # #####      #    #####   ######         |
 |        #     # #   # # #          #    #       #              |
 |        #     # #    ## #          #    #       #              |
 |        ####### #     # #######    #    ####### #              |
 |                                                               |
 |        Linear-Scaling Ab Initio Total Energy Program          |
 |                                                               |
 |          Release for academic collaborators of ODG            |
 |                                             Version 6.1.16.5  |
 |                                                               |
 +---------------------------------------------------------------+
 |                                                               |
 |  Authors:                                                     |
 |  Jacek Dziedzic, Peter D. Haynes, Nicholas D. M. Hine,        |
 |  Arash A. Mostofi, Mike C. Payne and Chris-Kriton Skylaris    |
 |                                                               |
 |  Contributors:                                                |
 |  J. Aarons, L. Andrinopoulos, P. W. Avraam, R. A. Bell,       |
 |  A. Bhandari, G. A. Bramley, R. J. Charlton, S. J. Clark,     |
 |  R. J. Clements, G. C. Constantinescu, F. Corsetti,           |
 |  N. Corsini, O. Dieguez, S. M. M. Dubois, K. K. B. Duff,      |
 |  J. M. Escartin, A. Greco, H. Helal, Q. O. Hill, L. P. Lee,   |
 |  J.-H. Li, E. B. Linscott, G. Moynihan, D. D. O`Regan,        |
 |  O. K. Okan, M. J. S. Phipps, C. J. Pickard,                  |
 |  J. C. A. Prentice, M. I. J. Probert, L. E. Ratcliff,         |
 |  M. Robinson, A. Ruiz Serrano, J. S. Spencer, E. W. Tait,     |
 |  G. Teobaldi, D. Turban, V. Vitale, K. A. Wilkinson,          |
 |  C. Weber, J. C. Womack, N. Yeung and T. J. Zuehlsdorff       |
 |                                                               |
 |                                   Copyright (c) 2004-2023     |
 |                                                               |
 |  Please cite:                                                 |
 |  "The ONETEP linear-scaling density functional theory program"|
 |   J. Chem. Phys. 152(17) 174111 (2020)                        |
 |                                                               |
 |          in all publications arising from your use of ONETEP. |
 |                                                               |
 +---------------------------------------------------------------+
 |                                                               |
 |   ONETEP is based on developments described in the following  |
 |   publications:                                               |
 |                                                               |
 |  "Nonorthogonal generalized Wannier function pseudopotential  |
 |   plane-wave method".                                         |
 |   C.-K. Skylaris, A. A. Mostofi, P. D. Haynes, O. Dieguez,    |
 |   M. C. Payne.                                                |
 |   Phys. Rev. B 66 035119 (2002).                              |
 |                                                               |
 |  "Preconditioned iterative minimization for linear-scaling    |
 |   electronic structure calculations".                         |
 |   A. A. Mostofi, P. D. Haynes, C.-K. Skylaris, M. C. Payne.   |
 |   J. Chem. Phys. 119(17), pp.8842-8848 (2003).                |
 |                                                               |
 |  "Total-energy calculations on a real space grid with         |
 |   localized functions and a plane-wave basis".                |
 |   A. A. Mostofi, C.-K. Skylaris, P. D. Haynes, M. C. Payne.   |
 |   Comput. Phys. Commun. 147, pp.788-802 (2002).               |
 |                                                               |
 |  "Accurate kinetic energy evaluation in electronic structure  |
 |   calculations with localized functions on real space grids"  |
 |   C.-K. Skylaris, A. A. Mostofi, P. D. Haynes, C. J. Pickard, |
 |   M. C. Payne.                                                |
 |   Comput. Phys. Commun. 140, pp.315-322 (2001).               |
 |                                                               |
 |  "Accurate ionic forces and geometry optimization in linear-  |
 |   scaling density-functional theory with local orbitals"      |
 |   N. D. M. Hine, M. Robinson, P. D. Haynes, C.-K. Skylaris,   |
 |   M. C. Payne, and A. A. Mostofi.                             |
 |   Phys. Rev. B 83 195102 (2011).                              |
 |                                                               |
 +---------------------------------------------------------------+

Job started: 25-04-2023 11:12 (+0100)
 
Reading parameters from file "hematite.dat" ...
WARNING in get_rundat: hubbard_calculating_u is TRUE, so do_properties will be
overridden to TRUE.
... done

If your calculation crashes here, before "Checking processes and threads..."
is displayed, then your stack size is insufficient.
If so, use "ulimit -s unlimited" at runtime.
You can disable this check with "check_stack_size F".

Checking processes and threads...
   Determining the default number of threads...
      No default threads set at compilation time: defaulting to 1.
      OpenMP library call suggests 2 threads.
      Hybrid MPI-OpenMP compilation detected.
      Number of MPI processes > 1.
      OMP_NUM_THREADS environment variable present and
      its value matches the one obtained from the OpenMP library call.
      Using this value as default.
      Default threads: 2
      Default applies to threads_max and threads_num_fftboxes.
      Settings in the input file override this default.
   ... done

   Running with 100 MPI processes.
   There are 20 MPI processes running on the same node as the root process.
   Each MPI process is using: 
               1 threads for simulation cell FFTs.
               1 threads for parallel FFT box operations.
               2 threads for loops over batched FFT box operations.
               2 threads in other parallel regions.
... done

Basic input checks...
Resetting ngwf_cg_rotate to TRUE for EDFT calculations
... done

Reading geometry and species blocks from file "hematite.dat" ...    
  Number of PPD points along a3 set to 1.  This is 
  the default value, it may have been provided also in the input file.
... done


--------------------------------------------------------------------------------
---------------------------------- INPUT FILE ----------------------------------
--------------------------------------------------------------------------------

%BLOCK LATTICE_CART                                                             
ang                                                                             
15.452988000000001   0.0000000000000000   0.0000000000000000                    
0.0000000000000000   17.8433974   0.0000000000000000                            
0.0000000000000000   0.0000053000000000  13.9654662999999992                    
%ENDBLOCK LATTICE_CART                                                          
%BLOCK POSITIONS_ABS                                                            
ang                                                                             
O        1.78535848       3.09224249       3.49152167                           
O        3.36567899       2.85559513       1.16382548                           
O        4.36084737       1.36862630       3.49155408                           
O        3.36573488       0.11834494       1.16387723                           
O        1.58036434      -0.00002676       3.49152756                           
O        0.99517513       1.48697099       1.16381959                           
Fe1      -0.00004167       2.97389633      11.31606586                          
Fe1      -0.00004610       2.97396189       7.30541218                          
Fe2       0.00002335       2.97389963       0.32234516                          
Fe2       0.00001812       2.97393799       4.33300198                          
O        4.36085648       1.60527802      12.80231133                           
O        0.79018099       1.36863067      10.47461515                           
O        4.36084737       4.34255522      12.80234374                           
O        3.36573488       3.09227387      10.47466689                           
O        1.58036434       2.97390217      12.80231722                           
O        3.57067313       0.00000652      10.47460925                           
Fe1       2.57545633       1.48693187       6.66067102                          
Fe1       2.57545190       1.48699743       2.65001735                          
Fe2       2.57552135       1.48693516       9.63313483                          
Fe2       2.57551612       1.48697353      13.64379165                          
O        1.78535848       0.11831356       8.14691650                           
O        0.79018099       4.34255960       5.81922031                           
O        1.78534937       2.85559076       8.14694891                           
O        0.79023688       1.60530940       5.81927206                           
O        4.15586234       1.48693771       8.14692239                           
O        3.57067313       2.97393545       5.81921442                           
Fe1      -0.00004167      -0.00003259       2.00527619                          
Fe1      -0.00004610       0.00003296      11.96080702                          
Fe2       0.00002335      -0.00002930       4.97774000                          
Fe2       0.00001812       0.00000907       8.98839682                          
O        4.36085648       7.55313588       3.49152167                           
O        0.79018099       7.31648852       1.16382548                           
O        1.78534937       5.82951969       3.49155408                           
O        0.79023688       4.57923833       1.16387723                           
O        4.15586234       4.46086663       3.49152756                           
O        3.57067313       5.94786438       1.16381959                           
Fe1       2.57545633       7.43478972      11.31606586                          
Fe1U       2.57545190       7.43485528       7.30541218                         
Fe2       2.57552135       7.43479302       0.32234516                          
Fe2       2.57551612       7.43483138       4.33300198                          
O        1.78535848       6.06617141      12.80231133                           
O        3.36567899       5.82952406      10.47461515                           
O        1.78534937       8.80344861      12.80234374                           
O        0.79023688       7.55316726      10.47466689                           
O        4.15586234       7.43479556      12.80231722                           
O        0.99517513       4.46089992      10.47460925                           
Fe1      -0.00004167       5.94782526       6.66067102                          
Fe1      -0.00004610       5.94789082       2.65001735                          
Fe2       0.00002335       5.94782855       9.63313483                          
Fe2       0.00001812       5.94786692      13.64379165                          
O        4.36085648       4.57920695       8.14691650                           
O        3.36567899       8.80345299       5.81922031                           
O        4.36084737       7.31648415       8.14694891                           
O        3.36573488       6.06620280       5.81927206                           
O        1.58036434       5.94783110       8.14692239                           
O        0.99517513       7.43482884       5.81921442                           
Fe1       2.57545633       4.46086080       2.00527619                          
Fe1       2.57545190       4.46092635      11.96080702                          
Fe2       2.57552135       4.46086409       4.97774000                          
Fe2       2.57551612       4.46090246       8.98839682                          
O        1.78535848      12.01402927       3.49152167                           
O        3.36567899      11.77738192       1.16382548                           
O        4.36084737      10.29041308       3.49155408                           
O        3.36573488       9.04013172       1.16387723                           
O        1.58036434       8.92176002       3.49152756                           
O        0.99517513      10.40875777       1.16381959                           
Fe1      -0.00004167      11.89568311      11.31606586                          
Fe1      -0.00004610      11.89574867       7.30541218                          
Fe2       0.00002335      11.89568641       0.32234516                          
Fe2       0.00001812      11.89572478       4.33300198                          
O        4.36085648      10.52706481      12.80231133                           
O        0.79018099      10.29041745      10.47461515                           
O        4.36084737      13.26434200      12.80234374                           
O        3.36573488      12.01406065      10.47466689                           
O        1.58036434      11.89568895      12.80231722                           
O        3.57067313       8.92179331      10.47460925                           
Fe1       2.57545633      10.40871865       6.66067102                          
Fe1       2.57545190      10.40878421       2.65001735                          
Fe2       2.57552135      10.40872195       9.63313483                          
Fe2       2.57551612      10.40876031      13.64379165                          
O        1.78535848       9.04010034       8.14691650                           
O        0.79018099      13.26434638       5.81922031                           
O        1.78534937      11.77737754       8.14694891                           
O        0.79023688      10.52709619       5.81927206                           
O        4.15586234      10.40872449       8.14692239                           
O        3.57067313      11.89572223       5.81921442                           
Fe1      -0.00004167       8.92175419       2.00527619                          
Fe1      -0.00004610       8.92181974      11.96080702                          
Fe2       0.00002335       8.92175748       4.97774000                          
Fe2       0.00001812       8.92179585       8.98839682                          
O        4.36085648      16.47492266       3.49152167                           
O        0.79018099      16.23827531       1.16382548                           
O        1.78534937      14.75130647       3.49155408                           
O        0.79023688      13.50102511       1.16387723                           
O        4.15586234      13.38265341       3.49152756                           
O        3.57067313      14.86965116       1.16381959                           
Fe1       2.57545633      16.35657651      11.31606586                          
Fe1       2.57545190      16.35664206       7.30541218                          
Fe2       2.57552135      16.35657980       0.32234516                          
Fe2       2.57551612      16.35661817       4.33300198                          
O        1.78535848      14.98795820      12.80231133                           
O        3.36567899      14.75131084      10.47461515                           
O        1.78534937      17.72523540      12.80234374                           
O        0.79023688      16.47495404      10.47466689                           
O        4.15586234      16.35658234      12.80231722                           
O        0.99517513      13.38268670      10.47460925                           
Fe1      -0.00004167      14.86961204       6.66067102                          
Fe1      -0.00004610      14.86967760       2.65001735                          
Fe2       0.00002335      14.86961534       9.63313483                          
Fe2       0.00001812      14.86965370      13.64379165                          
O        4.36085648      13.50099373       8.14691650                           
O        3.36567899      17.72523977       5.81922031                           
O        4.36084737      16.23827093       8.14694891                           
O        3.36573488      14.98798958       5.81927206                           
O        1.58036434      14.86961788       8.14692239                           
O        0.99517513      16.35661562       5.81921442                           
Fe1       2.57545633      13.38264758       2.00527619                          
Fe1       2.57545190      13.38271314      11.96080702                          
Fe2       2.57552135      13.38265087       4.97774000                          
Fe2       2.57551612      13.38268924       8.98839682                          
O        6.93635448       3.09224249       3.49152167                           
O        8.51667499       2.85559513       1.16382548                           
O        9.51184337       1.36862630       3.49155408                           
O        8.51673088       0.11834494       1.16387723                           
O        6.73136034      -0.00002676       3.49152756                           
O        6.14617113       1.48697099       1.16381959                           
Fe1       5.15095433       2.97389633      11.31606586                          
Fe1       5.15094990       2.97396189       7.30541218                          
Fe2       5.15101935       2.97389963       0.32234516                          
Fe2       5.15101412       2.97393799       4.33300198                          
O        9.51185248       1.60527802      12.80231133                           
O        5.94117699       1.36863067      10.47461515                           
O        9.51184337       4.34255522      12.80234374                           
O        8.51673088       3.09227387      10.47466689                           
O        6.73136034       2.97390217      12.80231722                           
O        8.72166913       0.00000652      10.47460925                           
Fe1       7.72645233       1.48693187       6.66067102                          
Fe1       7.72644790       1.48699743       2.65001735                          
Fe2       7.72651735       1.48693516       9.63313483                          
Fe2       7.72651212       1.48697353      13.64379165                          
O        6.93635448       0.11831356       8.14691650                           
O        5.94117699       4.34255960       5.81922031                           
O        6.93634537       2.85559076       8.14694891                           
O        5.94123288       1.60530940       5.81927206                           
O        9.30685834       1.48693771       8.14692239                           
O        8.72166913       2.97393545       5.81921442                           
Fe1       5.15095433      -0.00003259       2.00527619                          
Fe1       5.15094990       0.00003296      11.96080702                          
Fe2       5.15101935      -0.00002930       4.97774000                          
Fe2       5.15101412       0.00000907       8.98839682                          
O        9.51185248       7.55313588       3.49152167                           
O        5.94117699       7.31648852       1.16382548                           
O        6.93634537       5.82951969       3.49155408                           
O        5.94123288       4.57923833       1.16387723                           
O        9.30685834       4.46086663       3.49152756                           
O        8.72166913       5.94786438       1.16381959                           
Fe1       7.72645233       7.43478972      11.31606586                          
Fe1       7.72644790       7.43485528       7.30541218                          
Fe2       7.72651735       7.43479302       0.32234516                          
Fe2       7.72651212       7.43483138       4.33300198                          
O        6.93635448       6.06617141      12.80231133                           
O        8.51667499       5.82952406      10.47461515                           
O        6.93634537       8.80344861      12.80234374                           
O        5.94123288       7.55316726      10.47466689                           
O        9.30685834       7.43479556      12.80231722                           
O        6.14617113       4.46089992      10.47460925                           
Fe1       5.15095433       5.94782526       6.66067102                          
Fe1       5.15094990       5.94789082       2.65001735                          
Fe2       5.15101935       5.94782855       9.63313483                          
Fe2       5.15101412       5.94786692      13.64379165                          
O        9.51185248       4.57920695       8.14691650                           
O        8.51667499       8.80345299       5.81922031                           
O        9.51184337       7.31648415       8.14694891                           
O        8.51673088       6.06620280       5.81927206                           
O        6.73136034       5.94783110       8.14692239                           
O        6.14617113       7.43482884       5.81921442                           
Fe1       7.72645233       4.46086080       2.00527619                          
Fe1       7.72644790       4.46092635      11.96080702                          
Fe2       7.72651735       4.46086409       4.97774000                          
Fe2       7.72651212       4.46090246       8.98839682                          
O        6.93635448      12.01402927       3.49152167                           
O        8.51667499      11.77738192       1.16382548                           
O        9.51184337      10.29041308       3.49155408                           
O        8.51673088       9.04013172       1.16387723                           
O        6.73136034       8.92176002       3.49152756                           
O        6.14617113      10.40875777       1.16381959                           
Fe1       5.15095433      11.89568311      11.31606586                          
Fe1       5.15094990      11.89574867       7.30541218                          
Fe2       5.15101935      11.89568641       0.32234516                          
Fe2       5.15101412      11.89572478       4.33300198                          
O        9.51185248      10.52706481      12.80231133                           
O        5.94117699      10.29041745      10.47461515                           
O        9.51184337      13.26434200      12.80234374                           
O        8.51673088      12.01406065      10.47466689                           
O        6.73136034      11.89568895      12.80231722                           
O        8.72166913       8.92179331      10.47460925                           
Fe1       7.72645233      10.40871865       6.66067102                          
Fe1       7.72644790      10.40878421       2.65001735                          
Fe2       7.72651735      10.40872195       9.63313483                          
Fe2       7.72651212      10.40876031      13.64379165                          
O        6.93635448       9.04010034       8.14691650                           
O        5.94117699      13.26434638       5.81922031                           
O        6.93634537      11.77737754       8.14694891                           
O        5.94123288      10.52709619       5.81927206                           
O        9.30685834      10.40872449       8.14692239                           
O        8.72166913      11.89572223       5.81921442                           
Fe1       5.15095433       8.92175419       2.00527619                          
Fe1       5.15094990       8.92181974      11.96080702                          
Fe2       5.15101935       8.92175748       4.97774000                          
Fe2       5.15101412       8.92179585       8.98839682                          
O        9.51185248      16.47492266       3.49152167                           
O        5.94117699      16.23827531       1.16382548                           
O        6.93634537      14.75130647       3.49155408                           
O        5.94123288      13.50102511       1.16387723                           
O        9.30685834      13.38265341       3.49152756                           
O        8.72166913      14.86965116       1.16381959                           
Fe1       7.72645233      16.35657651      11.31606586                          
Fe1       7.72644790      16.35664206       7.30541218                          
Fe2       7.72651735      16.35657980       0.32234516                          
Fe2       7.72651212      16.35661817       4.33300198                          
O        6.93635448      14.98795820      12.80231133                           
O        8.51667499      14.75131084      10.47461515                           
O        6.93634537      17.72523540      12.80234374                           
O        5.94123288      16.47495404      10.47466689                           
O        9.30685834      16.35658234      12.80231722                           
O        6.14617113      13.38268670      10.47460925                           
Fe1       5.15095433      14.86961204       6.66067102                          
Fe1       5.15094990      14.86967760       2.65001735                          
Fe2       5.15101935      14.86961534       9.63313483                          
Fe2       5.15101412      14.86965370      13.64379165                          
O        9.51185248      13.50099373       8.14691650                           
O        8.51667499      17.72523977       5.81922031                           
O        9.51184337      16.23827093       8.14694891                           
O        8.51673088      14.98798958       5.81927206                           
O        6.73136034      14.86961788       8.14692239                           
O        6.14617113      16.35661562       5.81921442                           
Fe1       7.72645233      13.38264758       2.00527619                          
Fe1       7.72644790      13.38271314      11.96080702                          
Fe2       7.72651735      13.38265087       4.97774000                          
Fe2       7.72651212      13.38268924       8.98839682                          
O       12.08735048       3.09224249       3.49152167                           
O       13.66767099       2.85559513       1.16382548                           
O       14.66283937       1.36862630       3.49155408                           
O       13.66772688       0.11834494       1.16387723                           
O       11.88235634      -0.00002676       3.49152756                           
O       11.29716713       1.48697099       1.16381959                           
Fe1      10.30195033       2.97389633      11.31606586                          
Fe1      10.30194590       2.97396189       7.30541218                          
Fe2      10.30201535       2.97389963       0.32234516                          
Fe2      10.30201012       2.97393799       4.33300198                          
O       14.66284848       1.60527802      12.80231133                           
O       11.09217299       1.36863067      10.47461515                           
O       14.66283937       4.34255522      12.80234374                           
O       13.66772688       3.09227387      10.47466689                           
O       11.88235634       2.97390217      12.80231722                           
O       13.87266513       0.00000652      10.47460925                           
Fe1      12.87744833       1.48693187       6.66067102                          
Fe1      12.87744390       1.48699743       2.65001735                          
Fe2      12.87751335       1.48693516       9.63313483                          
Fe2      12.87750812       1.48697353      13.64379165                          
O       12.08735048       0.11831356       8.14691650                           
O       11.09217299       4.34255960       5.81922031                           
O       12.08734137       2.85559076       8.14694891                           
O       11.09222888       1.60530940       5.81927206                           
O       14.45785434       1.48693771       8.14692239                           
O       13.87266513       2.97393545       5.81921442                           
Fe1      10.30195033      -0.00003259       2.00527619                          
Fe1      10.30194590       0.00003296      11.96080702                          
Fe2      10.30201535      -0.00002930       4.97774000                          
Fe2      10.30201012       0.00000907       8.98839682                          
O       14.66284848       7.55313588       3.49152167                           
O       11.09217299       7.31648852       1.16382548                           
O       12.08734137       5.82951969       3.49155408                           
O       11.09222888       4.57923833       1.16387723                           
O       14.45785434       4.46086663       3.49152756                           
O       13.87266513       5.94786438       1.16381959                           
Fe1      12.87744833       7.43478972      11.31606586                          
Fe1      12.87744390       7.43485528       7.30541218                          
Fe2      12.87751335       7.43479302       0.32234516                          
Fe2      12.87750812       7.43483138       4.33300198                          
O       12.08735048       6.06617141      12.80231133                           
O       13.66767099       5.82952406      10.47461515                           
O       12.08734137       8.80344861      12.80234374                           
O       11.09222888       7.55316726      10.47466689                           
O       14.45785434       7.43479556      12.80231722                           
O       11.29716713       4.46089992      10.47460925                           
Fe1      10.30195033       5.94782526       6.66067102                          
Fe1      10.30194590       5.94789082       2.65001735                          
Fe2      10.30201535       5.94782855       9.63313483                          
Fe2      10.30201012       5.94786692      13.64379165                          
O       14.66284848       4.57920695       8.14691650                           
O       13.66767099       8.80345299       5.81922031                           
O       14.66283937       7.31648415       8.14694891                           
O       13.66772688       6.06620280       5.81927206                           
O       11.88235634       5.94783110       8.14692239                           
O       11.29716713       7.43482884       5.81921442                           
Fe1      12.87744833       4.46086080       2.00527619                          
Fe1      12.87744390       4.46092635      11.96080702                          
Fe2      12.87751335       4.46086409       4.97774000                          
Fe2      12.87750812       4.46090246       8.98839682                          
O       12.08735048      12.01402927       3.49152167                           
O       13.66767099      11.77738192       1.16382548                           
O       14.66283937      10.29041308       3.49155408                           
O       13.66772688       9.04013172       1.16387723                           
O       11.88235634       8.92176002       3.49152756                           
O       11.29716713      10.40875777       1.16381959                           
Fe1      10.30195033      11.89568311      11.31606586                          
Fe1      10.30194590      11.89574867       7.30541218                          
Fe2      10.30201535      11.89568641       0.32234516                          
Fe2      10.30201012      11.89572478       4.33300198                          
O       14.66284848      10.52706481      12.80231133                           
O       11.09217299      10.29041745      10.47461515                           
O       14.66283937      13.26434200      12.80234374                           
O       13.66772688      12.01406065      10.47466689                           
O       11.88235634      11.89568895      12.80231722                           
O       13.87266513       8.92179331      10.47460925                           
Fe1      12.87744833      10.40871865       6.66067102                          
Fe1      12.87744390      10.40878421       2.65001735                          
Fe2      12.87751335      10.40872195       9.63313483                          
Fe2      12.87750812      10.40876031      13.64379165                          
O       12.08735048       9.04010034       8.14691650                           
O       11.09217299      13.26434638       5.81922031                           
O       12.08734137      11.77737754       8.14694891                           
O       11.09222888      10.52709619       5.81927206                           
O       14.45785434      10.40872449       8.14692239                           
O       13.87266513      11.89572223       5.81921442                           
Fe1      10.30195033       8.92175419       2.00527619                          
Fe1      10.30194590       8.92181974      11.96080702                          
Fe2      10.30201535       8.92175748       4.97774000                          
Fe2      10.30201012       8.92179585       8.98839682                          
O       14.66284848      16.47492266       3.49152167                           
O       11.09217299      16.23827531       1.16382548                           
O       12.08734137      14.75130647       3.49155408                           
O       11.09222888      13.50102511       1.16387723                           
O       14.45785434      13.38265341       3.49152756                           
O       13.87266513      14.86965116       1.16381959                           
Fe1      12.87744833      16.35657651      11.31606586                          
Fe1      12.87744390      16.35664206       7.30541218                          
Fe2      12.87751335      16.35657980       0.32234516                          
Fe2      12.87750812      16.35661817       4.33300198                          
O       12.08735048      14.98795820      12.80231133                           
O       13.66767099      14.75131084      10.47461515                           
O       12.08734137      17.72523540      12.80234374                           
O       11.09222888      16.47495404      10.47466689                           
O       14.45785434      16.35658234      12.80231722                           
O       11.29716713      13.38268670      10.47460925                           
Fe1      10.30195033      14.86961204       6.66067102                          
Fe1      10.30194590      14.86967760       2.65001735                          
Fe2      10.30201535      14.86961534       9.63313483                          
Fe2      10.30201012      14.86965370      13.64379165                          
O       14.66284848      13.50099373       8.14691650                           
O       13.66767099      17.72523977       5.81922031                           
O       14.66283937      16.23827093       8.14694891                           
O       13.66772688      14.98798958       5.81927206                           
O       11.88235634      14.86961788       8.14692239                           
O       11.29716713      16.35661562       5.81921442                           
Fe1      12.87744833      13.38264758       2.00527619                          
Fe1      12.87744390      13.38271314      11.96080702                          
Fe2      12.87751335      13.38265087       4.97774000                          
Fe2      12.87750812      13.38268924       8.98839682                          
%ENDBLOCK POSITIONS_ABS                                                         
%BLOCK SPECIES                                                                  
Fe1 Fe 26 13 11.000000                                                          
Fe2 Fe 26 13 11.000000                                                          
Fe1U Fe 26 13 11.000000                                                         
O O 8 4 11.000000                                                               
%ENDBLOCK SPECIES                                                               
%BLOCK SPECIES_POT                                                              
Fe1 "Fe_NCP19_PBE_OTF.usp"                                                      
Fe1U "Fe_NCP19_PBE_OTF.usp"                                                     
Fe2 "Fe_NCP19_PBE_OTF.usp"                                                      
O "O_NCP19_PBE_OTF.usp"                                                         
%ENDBLOCK SPECIES_POT                                                           
%BLOCK SPECIES_ATOMIC_SET                                                       
Fe1 "SOLVE conf=3s2 3p6 3d5 4s0 4p0 SPIN=+5 CHARGE=+3"                          
Fe1U "SOLVE conf=3s2 3p6 3d5 4s0 4p0 SPIN=+5 CHARGE=+3"                         
Fe2 "SOLVE conf=3s2 3p6 3d5 4s0 4p0 SPIN=-5 CHARGE=+3"                          
O "SOLVE INIT SPIN=0 CHARGE=-1"                                                 
%ENDBLOCK SPECIES_ATOMIC_SET                                                    
%block hubbard                                                                  
Fe1 2 6.0 0.0 -10.0 0.00 0.0                                                    
Fe1U 2 6.0 0.0 -10.0 0.00 0.0                                                   
Fe2 2 6.0 0.0 -10.0 0.00 0.0                                                    
%endblock hubbard                                                               
%block species_ldos_groups                                                      
Fe1                                                                             
Fe1U                                                                            
Fe2                                                                             
O                                                                               
%endblock species_ldos_groups                                                   
%block species_pdos_groups                                                      
Fe1                                                                             
Fe2                                                                             
Fe1U                                                                            
O                                                                               
Fe1 Fe2                                                                         
Fe1 O                                                                           
Fe2 O                                                                           
%endblock species_pdos_groups                                                   
edft:True                                                                       
EDFT_SMEARING_WIDTH: 1e-05 eV                                                   
hubbard_calculating_u : T                                                       
cutoff_energy : 950 eV                                                          
kernel_cutoff : 1000 bohr                                                       
ngwf_threshold_orig : 2e-05                                                     
output_detail : VERBOSE                                                         
spin_polarized : True                                                           
task : SinglePoint                                                              
write_denskern : True                                                           
write_forces : True                                                             
write_hamiltonian : True                                                        
write_tightbox_ngwfs : True                                                     
read_denskern: T                                                                
read_hamiltonian: T                                                             
read_tightbox_ngwfs : T                                                         
xc_functional : PBE                                                             
do_properties: T                                                                
zero_total_force : True                                                         
write_initial_radial_ngwfs : T                                                  
elec_energy_tol           : 1.0e-4 ev                                           
maxit_palser_mano     : -1                                                      
maxit_hotelling            : 0                                                  
dos_smear : 0.1 eV                                                              
pdos_max_l : 2                                                                  

--------------------------------------------------------------------------------
-------------------------------- END INPUT FILE --------------------------------
--------------------------------------------------------------------------------


 
<<<<<<<<<<<<<<<<<<<<<<<<<<<<<<<<< Full system >>>>>>>>>>>>>>>>>>>>>>>>>>>>>>>>>>
<<<<<<<<<<<<<<<<<<<<<<<<< Pseudopotential information >>>>>>>>>>>>>>>>>>>>>>>>>>
File: O_NCP19_PBE_OTF.usp [ 2001 points up to Gmax=  52.9 (1/bohr)]
  Atomic number:  8;  ionic charge:  6.000000
    Shell 1: l = 0; rc = 1.19 bohr
    Shell 2: l = 0; rc = 1.19 bohr
    Shell 3: l = 1; rc = 1.19 bohr
    Shell 4: l = 1; rc = 1.25 bohr
  Core charge supplied for Nonlinear Core Corrections
File: Fe_NCP19_PBE_OTF.usp [ 2001 points up to Gmax=  52.9 (1/bohr)]
  Atomic number: 26;  ionic charge: 16.000000
    Shell 1: l = 0; rc = 1.13 bohr
    Shell 2: l = 0; rc = 1.25 bohr
    Shell 3: l = 1; rc = 1.19 bohr
    Shell 4: l = 2; rc = 1.31 bohr
    Shell 5: l = 2; rc = 1.31 bohr
  Core charge supplied for Nonlinear Core Corrections
<<<<<<<<<<<<<<<<<<<<<<<<<<<<<<<<<<<<<<<<>>>>>>>>>>>>>>>>>>>>>>>>>>>>>>>>>>>>>>>>

-------------------------- Atom counting information ---------------------------
Symbol    Natoms    Nngwfs    Nprojs
  O        216       864      1728
  Fe       144      1872      2160
.......   ......    ......    ......
Totals:    360      2736      3888
--------------------------------------------------------------------------------

=============================== PSINC grid sizes ===============================
                      Simulation cell:   63 x  75 x  63
                              FFT-box:   63 x  75 x  63
                                  PPD:    7 x   5 x   1
Grid space d1=  0.463522464778a0 (KE cutoff=  35.35594Eh = 962.08417eV)
Grid space d2=  0.449588458621a0 (KE cutoff=  37.58146Eh =1022.64367eV)
Grid space d3=  0.418903280139a0 (KE cutoff=  43.28889Eh =1177.95072eV)
================================================================================
  
WARNING in cell_grid_distribute:
Average of less than one 23-slab per proc, so workload cannot be
equally balanced between procs.

********************* Fourier parallelisation information **********************
       Coarse grid (whole simulation cell) dimensions:     63    75    63
          Real-space ('12') slabs/proc (min max mean):      0     1     0
         Recip-space ('23') slabs/proc (min max mean):      0     1     0
********************************************************************************
  
WARNING in cell_grid_distribute:
Average of less than one 23-slab per proc, so workload cannot be
equally balanced between procs.

********************* Fourier parallelisation information **********************
       Double grid (whole simulation cell) dimensions:    126   150   126
          Real-space ('12') slabs/proc (min max mean):      1     2     1
         Recip-space ('23') slabs/proc (min max mean):      0     1     0
********************************************************************************

Atom SCF Calculation for Fe : Z (AE atom) =  26 : Z (PS atom) =  16
Config String: 3s2 3p6 3d5 4s0 4p0 SPIN=+5 CHARGE=+3
Orbitals (num,occ):  5     2.00 6.00 5.00 0.00 0.00
Orbitals   (num,l):  5        0    1    2    0    1
Real-space Grid (nr,dr,rmax): 1801    0.0061111111   11.0000000000
Spherical Bessel Basis (nsws,lmax,cutoff):   37    2  209.4711490091
Confining potential (l,width,scale):  0    3.0000000000  100.0000000000
Confining potential (l,width,scale):  1    3.0000000000  100.0000000000
Confining potential (l,width,scale):  2    3.0000000000  100.0000000000
  1        -43.8825834757  -93.8894963456   47.6740939941   -6.8595257424
  2       -110.2826625538  -48.5672297033   75.5123596923  -10.8049952349
  3       -120.7895915647  -40.1582767093   83.6749592081  -11.8665531802
  4       -120.3522306466  -39.5197142216   84.3130929860  -11.9344040964
  5       -120.4679982071  -39.1332358894   84.7155488733  -11.9862295916
  6       -120.4672249923  -39.0427207630   84.8105751529  -11.9981251869
  7       -120.4700449559  -38.9971621815   84.8584960341  -12.0040695425
  8       -120.4713058831  -38.9794487193   84.8771369235  -12.0063337089
  9       -120.4720418770  -38.9690515008   84.8880789202  -12.0076406631
 10       -120.4724683329  -38.9629481016   84.8945008302  -12.0083934351
 11       -120.4727142567  -38.9593641999   84.8982704651  -12.0088263210
 12       -120.4728555632  -38.9572588631   84.9004839507  -12.0090749355
 13       -120.4729365071  -38.9560214869   84.9017842500  -12.0092175591
 14       -120.4729827493  -38.9552938364   84.9025484961  -12.0092992927
 15       -120.4730091023  -38.9548656772   84.9029979357  -12.0093460836
 16       -120.4730240855  -38.9546135812   84.9032624060  -12.0093728421
 17       -120.4730325846  -38.9544650497   84.9034181337  -12.0093881276
 18       -120.4730373940  -38.9543774758   84.9035098930  -12.0093968490
 19       -120.4730401086  -38.9543258049   84.9035639986  -12.0094018187
 20       -120.4730416364  -38.9542952951   84.9035959252  -12.0094046467
 21       -120.4730424936  -38.9542772663   84.9036147784  -12.0094062534
 22       -120.4730429729  -38.9542666044   84.9036259203  -12.0094071648
 23       -120.4730432397  -38.9542602941   84.9036325100  -12.0094076808
 24       -120.4730433876  -38.9542565563   84.9036364106  -12.0094079723
 25       -120.4730434692  -38.9542543404   84.9036387214  -12.0094081366
Atom SCF converged after  25 iterations to a total energy of   -120.47304347

Atom SCF Calculation for Fe : Z (AE atom) =  26 : Z (PS atom) =  16
Config String: 3s2 3p6 3d5 4s0 4p0 SPIN=-5 CHARGE=+3
Orbitals (num,occ):  5     2.00 6.00 5.00 0.00 0.00
Orbitals   (num,l):  5        0    1    2    0    1
Real-space Grid (nr,dr,rmax): 1801    0.0061111111   11.0000000000
Spherical Bessel Basis (nsws,lmax,cutoff):   37    2  209.4711490091
Confining potential (l,width,scale):  0    3.0000000000  100.0000000000
Confining potential (l,width,scale):  1    3.0000000000  100.0000000000
Confining potential (l,width,scale):  2    3.0000000000  100.0000000000
  1        -43.8825834757  -93.8894963456   47.6740939941   -6.8595257424
  2       -110.2826625538  -48.5672297033   75.5123596923  -10.8049952349
  3       -120.7895915647  -40.1582767093   83.6749592081  -11.8665531802
  4       -120.3522306466  -39.5197142216   84.3130929860  -11.9344040964
  5       -120.4679982071  -39.1332358894   84.7155488733  -11.9862295916
  6       -120.4672249923  -39.0427207630   84.8105751529  -11.9981251869
  7       -120.4700449559  -38.9971621815   84.8584960341  -12.0040695425
  8       -120.4713058831  -38.9794487193   84.8771369235  -12.0063337089
  9       -120.4720418770  -38.9690515008   84.8880789202  -12.0076406631
 10       -120.4724683329  -38.9629481016   84.8945008302  -12.0083934351
 11       -120.4727142567  -38.9593641999   84.8982704651  -12.0088263210
 12       -120.4728555632  -38.9572588631   84.9004839507  -12.0090749355
 13       -120.4729365071  -38.9560214869   84.9017842500  -12.0092175591
 14       -120.4729827493  -38.9552938364   84.9025484961  -12.0092992927
 15       -120.4730091023  -38.9548656772   84.9029979357  -12.0093460836
 16       -120.4730240855  -38.9546135812   84.9032624060  -12.0093728421
 17       -120.4730325846  -38.9544650497   84.9034181337  -12.0093881276
 18       -120.4730373940  -38.9543774758   84.9035098930  -12.0093968490
 19       -120.4730401086  -38.9543258049   84.9035639986  -12.0094018187
 20       -120.4730416364  -38.9542952951   84.9035959252  -12.0094046467
 21       -120.4730424936  -38.9542772663   84.9036147784  -12.0094062534
 22       -120.4730429729  -38.9542666044   84.9036259203  -12.0094071648
 23       -120.4730432397  -38.9542602941   84.9036325100  -12.0094076808
 24       -120.4730433876  -38.9542565563   84.9036364106  -12.0094079723
 25       -120.4730434692  -38.9542543404   84.9036387214  -12.0094081366
Atom SCF converged after  25 iterations to a total energy of   -120.47304347

Atom SCF Calculation for Fe : Z (AE atom) =  26 : Z (PS atom) =  16
Config String: 3s2 3p6 3d5 4s0 4p0 SPIN=+5 CHARGE=+3
Orbitals (num,occ):  5     2.00 6.00 5.00 0.00 0.00
Orbitals   (num,l):  5        0    1    2    0    1
Real-space Grid (nr,dr,rmax): 1801    0.0061111111   11.0000000000
Spherical Bessel Basis (nsws,lmax,cutoff):   37    2  209.4711490091
Confining potential (l,width,scale):  0    3.0000000000  100.0000000000
Confining potential (l,width,scale):  1    3.0000000000  100.0000000000
Confining potential (l,width,scale):  2    3.0000000000  100.0000000000
  1        -43.8825834757  -93.8894963456   47.6740939941   -6.8595257424
  2       -110.2826625538  -48.5672297033   75.5123596923  -10.8049952349
  3       -120.7895915647  -40.1582767093   83.6749592081  -11.8665531802
  4       -120.3522306466  -39.5197142216   84.3130929860  -11.9344040964
  5       -120.4679982071  -39.1332358894   84.7155488733  -11.9862295916
  6       -120.4672249923  -39.0427207630   84.8105751529  -11.9981251869
  7       -120.4700449559  -38.9971621815   84.8584960341  -12.0040695425
  8       -120.4713058831  -38.9794487193   84.8771369235  -12.0063337089
  9       -120.4720418770  -38.9690515008   84.8880789202  -12.0076406631
 10       -120.4724683329  -38.9629481016   84.8945008302  -12.0083934351
 11       -120.4727142567  -38.9593641999   84.8982704651  -12.0088263210
 12       -120.4728555632  -38.9572588631   84.9004839507  -12.0090749355
 13       -120.4729365071  -38.9560214869   84.9017842500  -12.0092175591
 14       -120.4729827493  -38.9552938364   84.9025484961  -12.0092992927
 15       -120.4730091023  -38.9548656772   84.9029979357  -12.0093460836
 16       -120.4730240855  -38.9546135812   84.9032624060  -12.0093728421
 17       -120.4730325846  -38.9544650497   84.9034181337  -12.0093881276
 18       -120.4730373940  -38.9543774758   84.9035098930  -12.0093968490
 19       -120.4730401086  -38.9543258049   84.9035639986  -12.0094018187
 20       -120.4730416364  -38.9542952951   84.9035959252  -12.0094046467
 21       -120.4730424936  -38.9542772663   84.9036147784  -12.0094062534
 22       -120.4730429729  -38.9542666044   84.9036259203  -12.0094071648
 23       -120.4730432397  -38.9542602941   84.9036325100  -12.0094076808
 24       -120.4730433876  -38.9542565563   84.9036364106  -12.0094079723
 25       -120.4730434692  -38.9542543404   84.9036387214  -12.0094081366
Atom SCF converged after  25 iterations to a total energy of   -120.47304347

Atom SCF Calculation for O  : Z (AE atom) =   8 : Z (PS atom) =   6
Config String:
Orbitals (num,occ):  2     2.00 4.00
Orbitals   (num,l):  2        0    1
Real-space Grid (nr,dr,rmax): 1801    0.0061111111   11.0000000000
Spherical Bessel Basis (nsws,lmax,cutoff):   37    1  209.4711490091
Confining potential (l,width,scale):  0    3.0000000000  100.0000000000
Confining potential (l,width,scale):  1    3.0000000000  100.0000000000
  1         -5.9813562621   -7.4536736520   10.1554283064   -2.5009863077
  2        -15.9503670897   -3.0797980359   13.6077972633   -3.2971694833
  3        -15.7954497671   -3.1027700728   13.5856634430   -3.2957002886
  4        -15.7962998042   -3.0885881700   13.6018548219   -3.3017767712
  5        -15.7858238226   -3.0892084456   13.6015294783   -3.3026025129
  6        -15.7829561324   -3.0886781378   13.6022758317   -3.3032749004
  7        -15.7817871673   -3.0885318685   13.6025075092   -3.3035469320
  8        -15.7810869855   -3.0884669002   13.6026235921   -3.3037122849
  9        -15.7806671919   -3.0884420638   13.6026789893   -3.3038126013
 10        -15.7804156249   -3.0884359088   13.6027034167   -3.3038734029
 11        -15.7802643984   -3.0884377696   13.6027124651   -3.3039102057
 12        -15.7801735427   -3.0884422918   13.6027144585   -3.3039324868
 13        -15.7801189098   -3.0884471262   13.6027135149   -3.3039459744
 14        -15.7800860336   -3.0884513463   13.6027116180   -3.3039541395
 15        -15.7800662359   -3.0884546988   13.6027096525   -3.3039590833
 16        -15.7800543058   -3.0884572207   13.6027079588   -3.3039620774
 17        -15.7800471118   -3.0884590511   13.6027066228   -3.3039638912
 18        -15.7800427708   -3.0884603468   13.6027056224   -3.3039649904
 19        -15.7800401496   -3.0884612469   13.6027048985   -3.3039656567
 20        -15.7800385657   -3.0884618634   13.6027043873   -3.3039660608
 21        -15.7800376080   -3.0884622808   13.6027040327   -3.3039663059
 22        -15.7800370284   -3.0884625609   13.6027037901   -3.3039664546
 23        -15.7800366774   -3.0884627473   13.6027036261   -3.3039665449
 24        -15.7800364647   -3.0884628707   13.6027035161   -3.3039665998
 25        -15.7800363357   -3.0884629519   13.6027034429   -3.3039666331
 26        -15.7800362574   -3.0884630050   13.6027033945   -3.3039666533
Atom SCF converged after  26 iterations to a total energy of    -15.78003626
Adjusting orbital occupancies:
Orbitals (num,spin,occ):  2  1     1.00 2.50
Orbitals   (num,spin,l):  2  1        0    1
Orbitals (num,spin,occ):  2  2     1.00 2.50
Orbitals   (num,spin,l):  2  2        0    1

Atom SCF Calculation for Fe : Z (AE atom) =  26 : Z (PS atom) =  16
Config String: 3s2 3p6 3d5 4s0 4p0 SPIN=+5 CHARGE=+3
Orbitals (num,occ):  5     2.00 6.00 5.00 0.00 0.00
Orbitals   (num,l):  5        0    1    2    0    1
Real-space Grid (nr,dr,rmax): 1801    0.0061111111   11.0000000000
Spherical Bessel Basis (nsws,lmax,cutoff):   37    2  209.4711490091
Confining potential (l,width,scale):  0    3.0000000000  100.0000000000
Confining potential (l,width,scale):  1    3.0000000000  100.0000000000
Confining potential (l,width,scale):  2    3.0000000000  100.0000000000
  1        -43.8825834757  -93.8894963456   47.6740939941   -6.8595257424
  2       -110.2826625538  -48.5672297033   75.5123596923  -10.8049952349
  3       -120.7895915647  -40.1582767093   83.6749592081  -11.8665531802
  4       -120.3522306466  -39.5197142216   84.3130929860  -11.9344040964
  5       -120.4679982071  -39.1332358894   84.7155488733  -11.9862295916
  6       -120.4672249923  -39.0427207630   84.8105751529  -11.9981251869
  7       -120.4700449559  -38.9971621815   84.8584960341  -12.0040695425
  8       -120.4713058831  -38.9794487193   84.8771369235  -12.0063337089
  9       -120.4720418770  -38.9690515008   84.8880789202  -12.0076406631
 10       -120.4724683329  -38.9629481016   84.8945008302  -12.0083934351
 11       -120.4727142567  -38.9593641999   84.8982704651  -12.0088263210
 12       -120.4728555632  -38.9572588631   84.9004839507  -12.0090749355
 13       -120.4729365071  -38.9560214869   84.9017842500  -12.0092175591
 14       -120.4729827493  -38.9552938364   84.9025484961  -12.0092992927
 15       -120.4730091023  -38.9548656772   84.9029979357  -12.0093460836
 16       -120.4730240855  -38.9546135812   84.9032624060  -12.0093728421
 17       -120.4730325846  -38.9544650497   84.9034181337  -12.0093881276
 18       -120.4730373940  -38.9543774758   84.9035098930  -12.0093968490
 19       -120.4730401086  -38.9543258049   84.9035639986  -12.0094018187
 20       -120.4730416364  -38.9542952951   84.9035959252  -12.0094046467
 21       -120.4730424936  -38.9542772663   84.9036147784  -12.0094062534
 22       -120.4730429729  -38.9542666044   84.9036259203  -12.0094071648
 23       -120.4730432397  -38.9542602941   84.9036325100  -12.0094076808
 24       -120.4730433876  -38.9542565563   84.9036364106  -12.0094079723
 25       -120.4730434692  -38.9542543404   84.9036387214  -12.0094081366
Atom SCF converged after  25 iterations to a total energy of   -120.47304347

Atom SCF Calculation for Fe : Z (AE atom) =  26 : Z (PS atom) =  16
Config String: 3s2 3p6 3d5 4s0 4p0 SPIN=-5 CHARGE=+3
Orbitals (num,occ):  5     2.00 6.00 5.00 0.00 0.00
Orbitals   (num,l):  5        0    1    2    0    1
Real-space Grid (nr,dr,rmax): 1801    0.0061111111   11.0000000000
Spherical Bessel Basis (nsws,lmax,cutoff):   37    2  209.4711490091
Confining potential (l,width,scale):  0    3.0000000000  100.0000000000
Confining potential (l,width,scale):  1    3.0000000000  100.0000000000
Confining potential (l,width,scale):  2    3.0000000000  100.0000000000
  1        -43.8825834757  -93.8894963456   47.6740939941   -6.8595257424
  2       -110.2826625538  -48.5672297033   75.5123596923  -10.8049952349
  3       -120.7895915647  -40.1582767093   83.6749592081  -11.8665531802
  4       -120.3522306466  -39.5197142216   84.3130929860  -11.9344040964
  5       -120.4679982071  -39.1332358894   84.7155488733  -11.9862295916
  6       -120.4672249923  -39.0427207630   84.8105751529  -11.9981251869
  7       -120.4700449559  -38.9971621815   84.8584960341  -12.0040695425
  8       -120.4713058831  -38.9794487193   84.8771369235  -12.0063337089
  9       -120.4720418770  -38.9690515008   84.8880789202  -12.0076406631
 10       -120.4724683329  -38.9629481016   84.8945008302  -12.0083934351
 11       -120.4727142567  -38.9593641999   84.8982704651  -12.0088263210
 12       -120.4728555632  -38.9572588631   84.9004839507  -12.0090749355
 13       -120.4729365071  -38.9560214869   84.9017842500  -12.0092175591
 14       -120.4729827493  -38.9552938364   84.9025484961  -12.0092992927
 15       -120.4730091023  -38.9548656772   84.9029979357  -12.0093460836
 16       -120.4730240855  -38.9546135812   84.9032624060  -12.0093728421
 17       -120.4730325846  -38.9544650497   84.9034181337  -12.0093881276
 18       -120.4730373940  -38.9543774758   84.9035098930  -12.0093968490
 19       -120.4730401086  -38.9543258049   84.9035639986  -12.0094018187
 20       -120.4730416364  -38.9542952951   84.9035959252  -12.0094046467
 21       -120.4730424936  -38.9542772663   84.9036147784  -12.0094062534
 22       -120.4730429729  -38.9542666044   84.9036259203  -12.0094071648
 23       -120.4730432397  -38.9542602941   84.9036325100  -12.0094076808
 24       -120.4730433876  -38.9542565563   84.9036364106  -12.0094079723
 25       -120.4730434692  -38.9542543404   84.9036387214  -12.0094081366
Atom SCF converged after  25 iterations to a total energy of   -120.47304347

Atom SCF Calculation for Fe : Z (AE atom) =  26 : Z (PS atom) =  16
Config String: 3s2 3p6 3d5 4s0 4p0 SPIN=+5 CHARGE=+3
Orbitals (num,occ):  5     2.00 6.00 5.00 0.00 0.00
Orbitals   (num,l):  5        0    1    2    0    1
Real-space Grid (nr,dr,rmax): 1801    0.0061111111   11.0000000000
Spherical Bessel Basis (nsws,lmax,cutoff):   37    2  209.4711490091
Confining potential (l,width,scale):  0    3.0000000000  100.0000000000
Confining potential (l,width,scale):  1    3.0000000000  100.0000000000
Confining potential (l,width,scale):  2    3.0000000000  100.0000000000
  1        -43.8825834757  -93.8894963456   47.6740939941   -6.8595257424
  2       -110.2826625538  -48.5672297033   75.5123596923  -10.8049952349
  3       -120.7895915647  -40.1582767093   83.6749592081  -11.8665531802
  4       -120.3522306466  -39.5197142216   84.3130929860  -11.9344040964
  5       -120.4679982071  -39.1332358894   84.7155488733  -11.9862295916
  6       -120.4672249923  -39.0427207630   84.8105751529  -11.9981251869
  7       -120.4700449559  -38.9971621815   84.8584960341  -12.0040695425
  8       -120.4713058831  -38.9794487193   84.8771369235  -12.0063337089
  9       -120.4720418770  -38.9690515008   84.8880789202  -12.0076406631
 10       -120.4724683329  -38.9629481016   84.8945008302  -12.0083934351
 11       -120.4727142567  -38.9593641999   84.8982704651  -12.0088263210
 12       -120.4728555632  -38.9572588631   84.9004839507  -12.0090749355
 13       -120.4729365071  -38.9560214869   84.9017842500  -12.0092175591
 14       -120.4729827493  -38.9552938364   84.9025484961  -12.0092992927
 15       -120.4730091023  -38.9548656772   84.9029979357  -12.0093460836
 16       -120.4730240855  -38.9546135812   84.9032624060  -12.0093728421
 17       -120.4730325846  -38.9544650497   84.9034181337  -12.0093881276
 18       -120.4730373940  -38.9543774758   84.9035098930  -12.0093968490
 19       -120.4730401086  -38.9543258049   84.9035639986  -12.0094018187
 20       -120.4730416364  -38.9542952951   84.9035959252  -12.0094046467
 21       -120.4730424936  -38.9542772663   84.9036147784  -12.0094062534
 22       -120.4730429729  -38.9542666044   84.9036259203  -12.0094071648
 23       -120.4730432397  -38.9542602941   84.9036325100  -12.0094076808
 24       -120.4730433876  -38.9542565563   84.9036364106  -12.0094079723
 25       -120.4730434692  -38.9542543404   84.9036387214  -12.0094081366
Atom SCF converged after  25 iterations to a total energy of   -120.47304347

Atom SCF Calculation for O  : Z (AE atom) =   8 : Z (PS atom) =   6
Config String:
Orbitals (num,occ):  2     2.00 4.00
Orbitals   (num,l):  2        0    1
Real-space Grid (nr,dr,rmax): 1801    0.0061111111   11.0000000000
Spherical Bessel Basis (nsws,lmax,cutoff):   37    1  209.4711490091
Confining potential (l,width,scale):  0    3.0000000000  100.0000000000
Confining potential (l,width,scale):  1    3.0000000000  100.0000000000
  1         -5.9813562621   -7.4536736520   10.1554283064   -2.5009863077
  2        -15.9503670897   -3.0797980359   13.6077972633   -3.2971694833
  3        -15.7954497671   -3.1027700728   13.5856634430   -3.2957002886
  4        -15.7962998042   -3.0885881700   13.6018548219   -3.3017767712
  5        -15.7858238226   -3.0892084456   13.6015294783   -3.3026025129
  6        -15.7829561324   -3.0886781378   13.6022758317   -3.3032749004
  7        -15.7817871673   -3.0885318685   13.6025075092   -3.3035469320
  8        -15.7810869855   -3.0884669002   13.6026235921   -3.3037122849
  9        -15.7806671919   -3.0884420638   13.6026789893   -3.3038126013
 10        -15.7804156249   -3.0884359088   13.6027034167   -3.3038734029
 11        -15.7802643984   -3.0884377696   13.6027124651   -3.3039102057
 12        -15.7801735427   -3.0884422918   13.6027144585   -3.3039324868
 13        -15.7801189098   -3.0884471262   13.6027135149   -3.3039459744
 14        -15.7800860336   -3.0884513463   13.6027116180   -3.3039541395
 15        -15.7800662359   -3.0884546988   13.6027096525   -3.3039590833
 16        -15.7800543058   -3.0884572207   13.6027079588   -3.3039620774
 17        -15.7800471118   -3.0884590511   13.6027066228   -3.3039638912
 18        -15.7800427708   -3.0884603468   13.6027056224   -3.3039649904
 19        -15.7800401496   -3.0884612469   13.6027048985   -3.3039656567
 20        -15.7800385657   -3.0884618634   13.6027043873   -3.3039660608
 21        -15.7800376080   -3.0884622808   13.6027040327   -3.3039663059
 22        -15.7800370284   -3.0884625609   13.6027037901   -3.3039664546
 23        -15.7800366774   -3.0884627473   13.6027036261   -3.3039665449
 24        -15.7800364647   -3.0884628707   13.6027035161   -3.3039665998
 25        -15.7800363357   -3.0884629519   13.6027034429   -3.3039666331
 26        -15.7800362574   -3.0884630050   13.6027033945   -3.3039666533
Atom SCF converged after  26 iterations to a total energy of    -15.78003626

BC: Task: SINGLEPOINT
BC: +++++++++++++++ Summary of boundary conditions ++++++++++++++
BC: |       Component       |     Keyword     |   Periodicity   |
BC: |                       |                 |     X  Y  Z [1] |
BC: |-----------------------------------------------------------|
BC: | Ion-ion               | ion_ion_bc [2]  |     P  P  P     |
BC: | Local pseudopotential | pspot_bc [3]    |     P  P  P     |
BC: | Van der Waals         | vdw_bc          |     P  P  P     |
BC: +++++++++++++++++++++++++++++++++++++++++++++++++++++++++++++
BC: P: Periodic, O: Open.
BC: [1] Not strictly along X, Y, Z but rather along lattice vectors A1, A2, A3.
BC: [2] Also affected by: pbc_correction_cutoff, cutoff_coulomb_type,
BC:     is_smeared_ion_rep, is_implicit_solvent, openbc_ion_ion.
BC: [3] Also affected by: is_smeared_ion_rep, is_implicit_solvent, openbc_pspot.

Determining parallel strategy ...
... using space-filling curve
... NGWF load balancing: max     30;  min     25;  average     27
... Projector load balancing: max     47;  min     30;  average     39
... Hubbard Projector load balancing: max     10;  min      5;  average      7
... done
Calculating Ewald energy ...
              Ewald: real-space energy =        21313.490394
        Ewald: reciprocal-space energy =            0.380582
         Ewald: (sum_charge)**2 energy =        30753.424580
         Ewald: (sum_charge**2) energy =         4019.702524
                          Ewald energy =       -13459.256129
Basis initialisation ...... NGWF spheres initialised
... Projector spheres initialised
... Hubbard Projector spheres initialised
... NGWF tight boxes initialised
... Tight-boxes gathered
... NGWF basis size (local,global):        800003     76847952
... Nonlocal pseudopotential projector initialisation
... done
... Hubbard projector initialisation

========================== Sparse matrix information ===========================
                        Overlap matrix filling:  96.94%
                        Density kernel filling: 100.00% (known to be dense)
              NGWF-Proj overlap matrix filling:  31.16%
      NGWF-Hubbard Proj overlap matrix filling:  96.56%
                             VW matrix filling: 100.00%
                    Hamiltonian matrix filling: 100.00%
                  NGWF diagonal matrix filling:   0.37%
                             KS matrix filling: 100.00% 
                           KSKS matrix filling: 100.00% 
================================================================================

Sparse matrix initialisation ... done

Reading NGWFs from file "hematite.tightbox_ngwfs" ...  done
 done

################################################################################
DFT+U information on atom      1 of Hubbard species Fe1 
################################################################################
Using the on-atom contravariant metric, the NGWF hydrogenic character
| < \phi | \psi > |**2 matrix of Hubbard site      1 is 
  m_l =   -2          -1           0           1           2         SUM
 -0.00000000 -0.00000000 -0.00000004 -0.00000000 -0.00000346 -0.00000350
 -0.00000000 -0.00000000 -0.00000000 -0.00000000 -0.00000000 -0.00000000
 -0.00000000 -0.00000000 -0.00000004 -0.00000000  0.00000000 -0.00000004
 -0.00000000 -0.00000000 -0.00000000 -0.00000000 -0.00000000 -0.00000000
  0.97824864  0.00000000 -0.00000000  0.00000000 -0.00000000  0.97824864
  0.00000000  0.97738577 -0.00000000 -0.00000000 -0.00000000  0.97738577
 -0.00000000  0.00000000  0.97377879 -0.00000000 -0.00010180  0.97367699
  0.00000000 -0.00000000 -0.00000000  0.98007322 -0.00000000  0.98007322
 -0.00000000 -0.00000000 -0.00010197 -0.00000000  0.97234070  0.97223873
  0.00000000 -0.00000000 -0.00000001  0.00000000 -0.00000080 -0.00000081
 -0.00000000 -0.00000000 -0.00000000  0.00000000 -0.00000000 -0.00000000
  0.00000000 -0.00000000 -0.00000001 -0.00000000  0.00000000 -0.00000001
 -0.00000000  0.00000000 -0.00000000 -0.00000000 -0.00000000 -0.00000000
Total hydrogenic projection of NGWFs on this atom             4.88161899
################################################################################


################################################################################
DFT+U information on atom      2 of Hubbard species Fe1 
################################################################################
Using the on-atom contravariant metric, the NGWF hydrogenic character
| < \phi | \psi > |**2 matrix of Hubbard site      2 is 
  m_l =   -2          -1           0           1           2         SUM
  0.00000000  0.00000000 -0.00000005 -0.00000000 -0.00000346 -0.00000350
 -0.00000000 -0.00000000 -0.00000000 -0.00000000 -0.00000000 -0.00000000
 -0.00000000 -0.00000000 -0.00000003 -0.00000000  0.00000000 -0.00000003
 -0.00000000 -0.00000000 -0.00000000 -0.00000000 -0.00000000 -0.00000000
  0.97824872 -0.00000000 -0.00000000 -0.00000000 -0.00000000  0.97824872
 -0.00000000  0.97738827 -0.00000000 -0.00000000 -0.00000000  0.97738827
 -0.00000000 -0.00000000  0.97376484 -0.00000000 -0.00010179  0.97366305
 -0.00000000 -0.00000000 -0.00000000  0.98007552 -0.00000000  0.98007552
 -0.00000000 -0.00000000 -0.00010196 -0.00000000  0.97234081  0.97223885
  0.00000000  0.00000000 -0.00000001 -0.00000000 -0.00000080 -0.00000081
 -0.00000000 -0.00000000 -0.00000000  0.00000000 -0.00000000 -0.00000000
  0.00000000 -0.00000000 -0.00000001 -0.00000000  0.00000000 -0.00000001
 -0.00000000  0.00000000 -0.00000000 -0.00000000 -0.00000000 -0.00000000
Total hydrogenic projection of NGWFs on this atom             4.88161005
################################################################################


################################################################################
DFT+U information on atom      1 of Hubbard species Fe1U
################################################################################
Using the on-atom contravariant metric, the NGWF hydrogenic character
| < \phi | \psi > |**2 matrix of Hubbard site     72 is 
  m_l =   -2          -1           0           1           2         SUM
 -0.00000000 -0.00000000 -0.00000108 -0.00000000 -0.00000128 -0.00000236
 -0.00000000 -0.00000000 -0.00000102 -0.00000000 -0.00000313 -0.00000414
 -0.00000000 -0.00000005 -0.00000003 -0.00000000 -0.00000000 -0.00000008
 -0.00000005 -0.00000000 -0.00000000 -0.00000000 -0.00000000 -0.00000005
  0.97592495 -0.00000000 -0.00000000 -0.00000000 -0.00000000  0.97592495
 -0.00000000  0.97867152 -0.00000000 -0.00000000 -0.00000000  0.97867152
 -0.00000000 -0.00000000  0.97588844 -0.00000000 -0.00003770  0.97585074
 -0.00000000 -0.00000000 -0.00000000  0.97658364 -0.00000000  0.97658364
 -0.00000000 -0.00000000 -0.00003772 -0.00000000  0.97905730  0.97901958
 -0.00000000 -0.00000000 -0.00000025 -0.00000000 -0.00000029 -0.00000053
 -0.00000000 -0.00000000 -0.00000027 -0.00000000 -0.00000084 -0.00000112
 -0.00000000 -0.00000001 -0.00000001 -0.00000000 -0.00000000 -0.00000002
 -0.00000001 -0.00000000 -0.00000000 -0.00000000 -0.00000000 -0.00000001
Total hydrogenic projection of NGWFs on this atom             4.88604211
################################################################################


################################################################################
DFT+U information on atom      1 of Hubbard species Fe2 
################################################################################
Using the on-atom contravariant metric, the NGWF hydrogenic character
| < \phi | \psi > |**2 matrix of Hubbard site     73 is 
  m_l =   -2          -1           0           1           2         SUM
  0.00000000 -0.00000000 -0.00000016 -0.00000000 -0.00000344 -0.00000359
 -0.00000000 -0.00000000 -0.00000000  0.00000000 -0.00000000 -0.00000000
  0.00000000 -0.00000000 -0.00000004 -0.00000000 -0.00000000 -0.00000004
 -0.00000000  0.00000000 -0.00000000 -0.00000000 -0.00000000 -0.00000000
  0.97826067 -0.00000000 -0.00000000 -0.00000000 -0.00000000  0.97826067
 -0.00000000  0.97685620 -0.00000000 -0.00000000 -0.00000000  0.97685620
 -0.00000000 -0.00000000  0.97784102 -0.00000000 -0.00010352  0.97773750
 -0.00000000 -0.00000000 -0.00000000  0.97951781 -0.00000000  0.97951781
 -0.00000000 -0.00000000 -0.00010363 -0.00000000  0.97235762  0.97225399
  0.00000000 -0.00000000 -0.00000004 -0.00000000 -0.00000079 -0.00000083
 -0.00000000 -0.00000000 -0.00000000  0.00000000 -0.00000000 -0.00000000
  0.00000000 -0.00000000 -0.00000001 -0.00000000 -0.00000000 -0.00000001
 -0.00000000  0.00000000 -0.00000000 -0.00000000 -0.00000000 -0.00000000
Total hydrogenic projection of NGWFs on this atom             4.88462170
################################################################################


################################################################################
DFT+U information on atom      2 of Hubbard species Fe2 
################################################################################
Using the on-atom contravariant metric, the NGWF hydrogenic character
| < \phi | \psi > |**2 matrix of Hubbard site     74 is 
  m_l =   -2          -1           0           1           2         SUM
  0.00000000  0.00000000 -0.00000016 -0.00000000 -0.00000344 -0.00000359
 -0.00000000 -0.00000000 -0.00000000 -0.00000000 -0.00000000 -0.00000000
 -0.00000000 -0.00000000 -0.00000004 -0.00000000 -0.00000000 -0.00000004
 -0.00000000 -0.00000000 -0.00000000 -0.00000000 -0.00000000 -0.00000000
  0.97826086 -0.00000000 -0.00000000 -0.00000000 -0.00000000  0.97826086
 -0.00000000  0.97685662 -0.00000000 -0.00000000 -0.00000000  0.97685662
 -0.00000000 -0.00000000  0.97783755 -0.00000000 -0.00010351  0.97773403
 -0.00000000 -0.00000000 -0.00000000  0.97951834 -0.00000000  0.97951834
 -0.00000000 -0.00000000 -0.00010363 -0.00000000  0.97235770  0.97225407
  0.00000000  0.00000000 -0.00000004 -0.00000000 -0.00000079 -0.00000083
 -0.00000000 -0.00000000 -0.00000000  0.00000000 -0.00000000 -0.00000000
  0.00000000 -0.00000000 -0.00000001 -0.00000000 -0.00000000 -0.00000001
 -0.00000000  0.00000000 -0.00000000 -0.00000000 -0.00000000 -0.00000000
Total hydrogenic projection of NGWFs on this atom             4.88461946
################################################################################

Writing HUBBARD PROJs to file "hematite.tightbox_hub_projs"....  done

################################################################################
Using the subspace contravariant metric, the NGWF hydrogenic character
| < \phi | \psi > |**2 matrix of Hubbard site      1 is 
  m_l =   -2          -1           0           1           2         SUM
  0.97824864  0.00000000 -0.00000000  0.00000000 -0.00000000  0.97824864
  0.00000000  0.97738576 -0.00000000 -0.00000000 -0.00000000  0.97738576
 -0.00000000  0.00000000  0.97377848 -0.00000000 -0.00010179  0.97367669
  0.00000000 -0.00000000 -0.00000000  0.98007322 -0.00000000  0.98007322
 -0.00000000 -0.00000000 -0.00010196 -0.00000000  0.97232851  0.97222655
Total hydrogenic projection of NGWFs on this correlated site  4.88161087
################################################################################


################################################################################
Using the subspace contravariant metric, the NGWF hydrogenic character
| < \phi | \psi > |**2 matrix of Hubbard site      2 is 
  m_l =   -2          -1           0           1           2         SUM
  0.97824872 -0.00000000 -0.00000000 -0.00000000 -0.00000000  0.97824872
 -0.00000000  0.97738827 -0.00000000 -0.00000000 -0.00000000  0.97738827
 -0.00000000 -0.00000000  0.97376456 -0.00000000 -0.00010178  0.97366278
 -0.00000000 -0.00000000 -0.00000000  0.98007552 -0.00000000  0.98007552
 -0.00000000 -0.00000000 -0.00010195 -0.00000000  0.97232862  0.97222667
Total hydrogenic projection of NGWFs on this correlated site  4.88160196
################################################################################


################################################################################
Using the subspace contravariant metric, the NGWF hydrogenic character
| < \phi | \psi > |**2 matrix of Hubbard site      3 is 
  m_l =   -2          -1           0           1           2         SUM
  0.97592873 -0.00000000 -0.00000000 -0.00000000 -0.00000000  0.97592873
 -0.00000000  0.97867444 -0.00000000 -0.00000000 -0.00000000  0.97867444
 -0.00000000 -0.00000000  0.97588714 -0.00000000 -0.00003791  0.97584924
 -0.00000000 -0.00000000 -0.00000000  0.97658358 -0.00000000  0.97658358
 -0.00000000 -0.00000000 -0.00003793 -0.00000000  0.97902083  0.97898290
Total hydrogenic projection of NGWFs on this correlated site  4.88601888
################################################################################


################################################################################
Using the subspace contravariant metric, the NGWF hydrogenic character
| < \phi | \psi > |**2 matrix of Hubbard site      4 is 
  m_l =   -2          -1           0           1           2         SUM
  0.97592650 -0.00000000 -0.00000000 -0.00000000 -0.00000000  0.97592650
 -0.00000000  0.97867281 -0.00000000 -0.00000000 -0.00000000  0.97867281
 -0.00000000 -0.00000000  0.97588203 -0.00000000 -0.00003782  0.97584422
 -0.00000000 -0.00000000 -0.00000000  0.97658372 -0.00000000  0.97658372
 -0.00000000 -0.00000000 -0.00003784 -0.00000000  0.97902803  0.97899019
Total hydrogenic projection of NGWFs on this correlated site  4.88601744
################################################################################


################################################################################
Using the subspace contravariant metric, the NGWF hydrogenic character
| < \phi | \psi > |**2 matrix of Hubbard site      5 is 
  m_l =   -2          -1           0           1           2         SUM
  0.98047656 -0.00000000 -0.00000000 -0.00000000 -0.00000000  0.98047656
 -0.00000000  0.97958689 -0.00000000  0.00000000 -0.00000000  0.97958689
 -0.00000000 -0.00000000  0.97085405 -0.00000000 -0.00000216  0.97085188
 -0.00000000  0.00000000 -0.00000000  0.97996529 -0.00000000  0.97996529
 -0.00000000 -0.00000000 -0.00000216 -0.00000000  0.96457612  0.96457396
Total hydrogenic projection of NGWFs on this correlated site  4.87545458
################################################################################


################################################################################
[...]
*    O     172     -0.00364905  -0.00633545   0.00183278 *
*    O     173      0.00149883  -0.00756779   0.00141419 *
*    O     174     -0.00359425   0.00627015  -0.00140201 *
*    O     175     -0.00656121  -0.00004600  -0.00021776 *
*    O     176      0.00714851   0.00087243   0.00037704 *
*    Fe    177      0.00050892   0.00499330   0.00697512 *
*    Fe    178     -0.00050942   0.00576858  -0.00701563 *
*    Fe    179      0.00051445   0.00576317  -0.00856853 *
*    Fe    180     -0.00048355   0.00494426   0.00859572 *
*    O     181      0.00360118   0.00633123  -0.00184476 *
*    O     182     -0.00361948  -0.00636325   0.00188890 *
*    O     183      0.00159244  -0.00530663   0.00151431 *
*    O     184     -0.00364325   0.00614533  -0.00136248 *
*    O     185     -0.00635826  -0.00006826  -0.00021271 *
*    O     186      0.00713866  -0.00109543   0.00025694 *
*    Fe    187      0.00027951  -0.00059906   0.00578565 *
*    Fe    188     -0.00024359   0.00039617  -0.00595065 *
*    Fe    189      0.00025984   0.00043122  -0.00741048 *
*    Fe    190     -0.00025618  -0.00061804   0.00753579 *
*    O     191      0.00152808   0.00736329  -0.00199872 *
*    O     192     -0.00161860  -0.00529031   0.00200135 *
*    O     193      0.00148267  -0.00742956   0.00139532 *
*    O     194     -0.00360982   0.00633379  -0.00138601 *
*    O     195     -0.00654640   0.00002584  -0.00030024 *
*    O     196      0.00635615  -0.00011429   0.00029425 *
*    Fe    197      0.00050128   0.00486502   0.00699711 *
*    Fe    198     -0.00051402   0.00561383  -0.00692392 *
*    Fe    199      0.00051915   0.00560833  -0.00856171 *
*    Fe    200     -0.00047760   0.00481703   0.00852048 *
*    O     201      0.00363153   0.00613419  -0.00188277 *
*    O     202     -0.00152259  -0.00740775   0.00193726 *
*    O     203      0.00358143  -0.00638641   0.00135218 *
*    O     204     -0.00152045   0.00737424  -0.00148240 *
*    O     205     -0.00714154  -0.00103110  -0.00030586 *
*    O     206      0.00654704  -0.00003468   0.00025390 *
*    Fe    207      0.00008410  -0.00071995   0.00603695 *
*    Fe    208     -0.00007705  -0.00002879  -0.00607456 *
*    Fe    209      0.00008871  -0.00000285  -0.00760835 *
*    Fe    210     -0.00005805  -0.00073454   0.00763683 *
*    O     211      0.00152366   0.00754271  -0.00190189 *
*    O     212     -0.00160982  -0.00511603   0.00208553 *
*    O     213      0.00361393  -0.00615848   0.00138417 *
*    O     214     -0.00160473   0.00526558  -0.00149394 *
*    O     215     -0.00713961   0.00104475  -0.00018773 *
*    O     216      0.00635175   0.00003238   0.00027479 *
*    Fe    217      0.00052730   0.00550157   0.00688538 *
*    Fe    218     -0.00047908   0.00625656  -0.00703784 *
*    Fe    219      0.00048569   0.00625013  -0.00849365 *
*    Fe    220     -0.00050168   0.00545287   0.00859200 *
*    O     221      0.00365712   0.00632126  -0.00189654 *
*    O     222     -0.00363714  -0.00614447   0.00187041 *
*    O     223      0.00354872  -0.00628800   0.00131609 *
*    O     224     -0.00152936   0.00754436  -0.00144332 *
*    O     225     -0.00714642  -0.00087724  -0.00043137 *
*    O     226      0.00713989   0.00099844   0.00031115 *
*    Fe    227      0.00011542  -0.00003082   0.00604520 *
*    Fe    228     -0.00004530   0.00065150  -0.00594273 *
*    Fe    229      0.00005697   0.00067641  -0.00760370 *
*    Fe    230     -0.00009086  -0.00004404   0.00754876 *
*    O     231      0.00161529   0.00525355  -0.00201312 *
*    O     232     -0.00358808  -0.00626640   0.00185246 *
*    O     233      0.00157049  -0.00514106   0.00154019 *
*    O     234     -0.00367041   0.00633375  -0.00137613 *
*    O     235     -0.00635684   0.00009581  -0.00028995 *
*    O     236      0.00714879  -0.00094183   0.00013143 *
*    Fe    237      0.00054083  -0.00576085   0.00702712 *
*    Fe    238     -0.00047341  -0.00501565  -0.00698018 *
*    Fe    239      0.00048107  -0.00495147  -0.00853404 *
*    Fe    240     -0.00051303  -0.00574089   0.00864617 *
*    O     241      0.00363188   0.00625813  -0.00184926 *
*    O     242     -0.00364442  -0.00619955   0.00191260 *
*    O     243      0.00148388  -0.00737810   0.00145276 *
*    O     244     -0.00359202   0.00648192  -0.00130219 *
*    O     245     -0.00655854   0.00012941  -0.00029948 *
*    O     246      0.00715001   0.00101850   0.00035767 *
*    Fe    247      0.00010761  -0.00027757   0.00590763 *
*    Fe    248     -0.00005700   0.00043574  -0.00606994 *
*    Fe    249      0.00007043   0.00046062  -0.00750669 *
*    Fe    250     -0.00008173  -0.00029134   0.00763222 *
*    O     251      0.00161814   0.00528490  -0.00205385 *
*    O     252     -0.00150877  -0.00736467   0.00193672 *
*    O     253      0.00156465  -0.00527062   0.00146360 *
*    O     254     -0.00364212   0.00626180  -0.00138939 *
*    O     255     -0.00636580   0.00006330  -0.00031957 *
*    O     256      0.00655742   0.00008595   0.00019268 *
*    Fe    257      0.00054347  -0.00561364   0.00703957 *
*    Fe    258     -0.00046754  -0.00485722  -0.00687275 *
*    Fe    259      0.00047570  -0.00479315  -0.00851205 *
*    Fe    260     -0.00051704  -0.00559278   0.00856199 *
*    O     261      0.00359872   0.00647181  -0.00181214 *
*    O     262     -0.00160564  -0.00524688   0.00200794 *
*    O     263      0.00360849  -0.00622256   0.00136457 *
*    O     264     -0.00160941   0.00529818  -0.00153490 *
*    O     265     -0.00715270   0.00108248  -0.00020486 *
*    O     266      0.00636571   0.00000011   0.00024447 *
*    Fe    267      0.00029646  -0.00010548   0.00591283 *
*    Fe    268     -0.00021805   0.00091058  -0.00594347 *
*    Fe    269      0.00023302   0.00094671  -0.00750051 *
*    Fe    270     -0.00027285  -0.00012378   0.00753767 *
*    O     271      0.00159736   0.00510623  -0.00203888 *
*    O     272     -0.00153713  -0.00754458   0.00195648 *
*    O     273      0.00357699  -0.00644545   0.00133980 *
*    O     274     -0.00149918   0.00741860  -0.00141776 *
*    O     275     -0.00715478  -0.00099754  -0.00031761 *
*    O     276      0.00655683  -0.00010667   0.00033665 *
*    Fe    277      0.00051672  -0.00629069   0.00691889 *
*    Fe    278     -0.00049782  -0.00552740  -0.00699500 *
*    Fe    279      0.00050745  -0.00546416  -0.00845160 *
*    Fe    280     -0.00048888  -0.00627144   0.00862440 *
*    O     281      0.00359932   0.00625882  -0.00191241 *
*    O     282     -0.00360176  -0.00643103   0.00182487 *
*    O     283      0.00361141  -0.00635720   0.00128532 *
*    O     284     -0.00160158   0.00510989  -0.00157748 *
*    O     285     -0.00714603   0.00093669  -0.00018561 *
*    O     286      0.00715458  -0.00104314   0.00018037 *
*    Fe    287      0.00027026  -0.00082300   0.00590728 *
*    Fe    288     -0.00025556   0.00019930  -0.00581274 *
*    Fe    289      0.00027040   0.00023573  -0.00749825 *
*    Fe    290     -0.00024803  -0.00084060   0.00743598 *
*    O     291      0.00150826   0.00740924  -0.00193380 *
*    O     292     -0.00364905  -0.00633545   0.00183278 *
*    O     293      0.00149883  -0.00756779   0.00141419 *
*    O     294     -0.00359425   0.00627015  -0.00140201 *
*    O     295     -0.00656121  -0.00004600  -0.00021776 *
*    O     296      0.00714851   0.00087243   0.00037704 *
*    Fe    297      0.00050892   0.00499330   0.00697512 *
*    Fe    298     -0.00050942   0.00576858  -0.00701563 *
*    Fe    299      0.00051445   0.00576317  -0.00856853 *
*    Fe    300     -0.00048355   0.00494426   0.00859572 *
*    O     301      0.00360118   0.00633123  -0.00184476 *
*    O     302     -0.00361948  -0.00636325   0.00188890 *
*    O     303      0.00159244  -0.00530663   0.00151431 *
*    O     304     -0.00364325   0.00614533  -0.00136248 *
*    O     305     -0.00635826  -0.00006826  -0.00021271 *
*    O     306      0.00713866  -0.00109543   0.00025694 *
*    Fe    307      0.00027951  -0.00059906   0.00578565 *
*    Fe    308     -0.00024359   0.00039617  -0.00595065 *
*    Fe    309      0.00025984   0.00043122  -0.00741048 *
*    Fe    310     -0.00025618  -0.00061804   0.00753579 *
*    O     311      0.00152808   0.00736329  -0.00199872 *
*    O     312     -0.00161860  -0.00529031   0.00200135 *
*    O     313      0.00148267  -0.00742956   0.00139532 *
*    O     314     -0.00360982   0.00633379  -0.00138601 *
*    O     315     -0.00654640   0.00002584  -0.00030024 *
*    O     316      0.00635615  -0.00011429   0.00029425 *
*    Fe    317      0.00050128   0.00486502   0.00699711 *
*    Fe    318     -0.00051402   0.00561383  -0.00692392 *
*    Fe    319      0.00051915   0.00560833  -0.00856171 *
*    Fe    320     -0.00047760   0.00481703   0.00852048 *
*    O     321      0.00363153   0.00613419  -0.00188277 *
*    O     322     -0.00152259  -0.00740775   0.00193726 *
*    O     323      0.00358143  -0.00638641   0.00135218 *
*    O     324     -0.00152045   0.00737424  -0.00148240 *
*    O     325     -0.00714154  -0.00103110  -0.00030586 *
*    O     326      0.00654704  -0.00003468   0.00025390 *
*    Fe    327      0.00008410  -0.00071995   0.00603695 *
*    Fe    328     -0.00007705  -0.00002879  -0.00607456 *
*    Fe    329      0.00008871  -0.00000285  -0.00760835 *
*    Fe    330     -0.00005805  -0.00073454   0.00763683 *
*    O     331      0.00152366   0.00754271  -0.00190189 *
*    O     332     -0.00160982  -0.00511603   0.00208553 *
*    O     333      0.00361393  -0.00615848   0.00138417 *
*    O     334     -0.00160473   0.00526558  -0.00149394 *
*    O     335     -0.00713961   0.00104475  -0.00018773 *
*    O     336      0.00635175   0.00003238   0.00027479 *
*    Fe    337      0.00052730   0.00550157   0.00688538 *
*    Fe    338     -0.00047908   0.00625656  -0.00703784 *
*    Fe    339      0.00048569   0.00625013  -0.00849365 *
*    Fe    340     -0.00050168   0.00545287   0.00859200 *
*    O     341      0.00365712   0.00632126  -0.00189654 *
*    O     342     -0.00363714  -0.00614447   0.00187041 *
*    O     343      0.00354872  -0.00628800   0.00131609 *
*    O     344     -0.00152936   0.00754436  -0.00144332 *
*    O     345     -0.00714642  -0.00087724  -0.00043137 *
*    O     346      0.00713989   0.00099844   0.00031115 *
*    Fe    347      0.00011542  -0.00003082   0.00604520 *
*    Fe    348     -0.00004530   0.00065150  -0.00594273 *
*    Fe    349      0.00005697   0.00067641  -0.00760370 *
*    Fe    350     -0.00009086  -0.00004404   0.00754876 *
*    O     351      0.00161529   0.00525355  -0.00201312 *
*    O     352     -0.00358808  -0.00626640   0.00185246 *
*    O     353      0.00157049  -0.00514106   0.00154019 *
*    O     354     -0.00367041   0.00633375  -0.00137613 *
*    O     355     -0.00635684   0.00009581  -0.00028995 *
*    O     356      0.00714879  -0.00094183   0.00013143 *
*    Fe    357      0.00054083  -0.00576085   0.00702712 *
*    Fe    358     -0.00047341  -0.00501565  -0.00698018 *
*    Fe    359      0.00048107  -0.00495147  -0.00853404 *
*    Fe    360     -0.00051303  -0.00574089   0.00864617 *
*                                                        *
**********************************************************
* TOTAL:            0.00000000   0.00000000   0.00000000 *
**********************************************************
 
 
***********************************************************
********** Summary of Forces (values in Eh/a) *************
*                                                         *
* ---------------------- Minimum ------------------------ *
* Atom:       164, |F|min =    0.00558251                 *
* Components:     Fx|min       Fy|min       Fz|min        *
*              -0.00160158   0.00510989  -0.00157748      *
*                                                         *
* ---------------------- Maximum ------------------------ *
* Atom:       160, |F|max =    0.01067475                 *
* Components:     Fx|max       Fy|max       Fz|max        *
*              -0.00048888  -0.00627144   0.00862440      *
*                                                         *
* ---------------- Root Mean Square Force --------------- *
*                  |F|rms =    0.00757892                 *
* Components:     Fx|rms       Fy|rms       Fz|rms        *
*               0.00352615   0.00473718   0.00475030      *
***********************************************************
 

------------------------------ TIMING INFORMATION ------------------------------
AVERAGE TIME:    6703.467s on    100 proc(s)                                    
TOTAL TIME:      6703.494s on    100 proc(s)                                    
================= AVERAGE TIMINGS FROM ALL PROCS (CUMULATIVE) ==================
|| TAG                                    #calls    cpu time   %total  Gflops ||
|| hubbard_species_proj                 :     1        0.00s   0.000%  ------ ||
|| hubbard_ngwf_select                  :     1        0.00s   0.000%  ------ ||
|| hubbard_projector_character          :     1        0.00s   0.000%  ------ ||
|| hubbard_ngwf_on_grid                 :     1        0.00s   0.000%  ------ ||
|| ewald_calculate_forces_realspace     :     1        0.00s   0.000%  ------ ||
|| pseudopotentials_core_density        :     1        0.01s   0.000%  ------ ||
|| onetep.F90 final imbalance           :     1        0.01s   0.000%  ------ ||
|| linalg_invert_sym_matrix             :     2        0.01s   0.000%  ------ ||
|| hubbard_tensorial_correction         :     2        0.01s   0.000%  ------ ||
|| onetep.F90 main loop imbalance       :     1        0.01s   0.000%  ------ ||
|| pseudopotentials_local_on_grid       :     1        0.03s   0.000%  ------ ||
|| sparse_set_to_garbage                :   138        0.03s   0.000%  ------ ||
|| pseudo_make_structure_factor         :     1        0.04s   0.001%  ------ ||
|| basis_extract_function_from_box      :   355        0.08s   0.001%  ------ ||
|| pseudo_local_calculate_forces        :     1        0.09s   0.001%  ------ ||
|| ewald_calculate_energy               :     1        0.15s   0.002%  ------ ||
|| pseudo_nlcc_calculate_forces         :     1        0.15s   0.002%  ------ ||
|| restart_hamiltonian_read             :     1        0.31s   0.005%  ------ ||
|| restart_kernel_read                  :     1        0.41s   0.006%  ------ ||
|| ewald_calculate_forces_recipspace    :     1        0.42s   0.006%  ------ ||
|| ewald_calculate_forces               :     1        0.43s   0.006%  ------ ||
|| hartree_on_grid                      :    70        0.55s   0.008%  ------ ||
|| nonsc_forces_ngwfs_calc              :     1        0.73s   0.011%  ------ ||
|| restart_kernel_write                 :     6        0.77s   0.012%  ------ ||
|| restart_hamiltonian_write            :     6        0.80s   0.012%  ------ ||
|| restart_ngwfs_tightbox_input         :     1        1.08s   0.016%  ------ ||
|| hubbard_projection_mtx               :    14        1.08s   0.016%  ------ ||
|| energy_and_force_init_cell           :     1        1.37s   0.020%  ------ ||
|| dense_normal_eigensolve              :     1        1.44s   0.021%  ------ ||
|| fourier_apply_cell_backward          :   632        1.61s   0.024%  50.141 ||
|| sparse_init                          :     1        1.72s   0.026%  ------ ||
|| fourier_apply_cell_forward           :   632        1.76s   0.026%  45.740 ||
|| pseudopotentials_nonlocal_mat        :    12        3.09s   0.046%  ------ ||
|| fourier_apply_box_pair               :   842        3.15s   0.047% 723.058 ||
|| basis_copy_function_to_box           :  6505        3.55s   0.053%  ------ ||
|| xc_energy_potential                  :    70        3.58s   0.053%  ------ ||
|| hubbard_ham_matrix                   :    22        4.16s   0.062%  ------ ||
|| projectors_init_fftbox_recip         :    28        4.20s   0.063%  ------ ||
|| ngwfs_initialise_from_radial         :     2        4.46s   0.067%  ------ ||
|| hubbard_projector_ham                :    22        4.63s   0.069%  ------ ||
|| ngwf_gradient_coeffs                 :     6        5.60s   0.084%  ------ ||
|| sparse_trace                         :   954        9.13s   0.136%  ------ ||
|| hubbard_energy_total                 :    90       12.41s   0.185%  ------ ||
|| cell_grid_extract_box_real           :  1908       12.41s   0.185%  ------ ||
|| hubbard_calculate_forces             :     1       17.73s   0.265%  ------ ||
|| integrals_grad                       :     2       18.03s   0.269%  ------ ||
|| projectors_func_grad_ovlp_box        :     3       29.49s   0.440%  ------ ||
|| sw_init                              :     1       30.42s   0.454%  ------ ||
|| pseudo_nl_calculate_forces           :     1       30.86s   0.460%  ------ ||
|| cell_grid_deposit_box_real           :  5040       33.78s   0.504%  ------ ||
|| density_fftbox_deposit_to_cell       :  4320       37.49s   0.559%  ------ ||
|| sparse_product                       :  1402       57.35s   0.856%  ------ ||
|| dense_eigensolve                     :   110       58.22s   0.869%  ------ ||
|| potential_apply_to_ngwf_batch        :   102       76.76s   1.145%  ------ ||
|| forces_calculate                     :     1       86.87s   1.296%  ------ ||
|| hubbard_projector_update             :     1      118.81s   1.772%  ------ ||
|| projectors_func_ovlp_box             :    13      122.86s   1.833%  ------ ||
|| edft_diag_ngwf_ham                   :   108      137.07s   2.045%  ------ ||
|| fourier_apply_box                    : 13868      142.68s   2.128%  1.211k ||
|| density_fftbox_interpolate_multiply  :  4320      152.99s   2.282%  ------ ||
|| integrals_kinetic                    :    12      182.18s   2.718%  ------ ||
|| hamiltonian_energy_components        :     2      191.83s   2.862%  ------ ||
|| function_ops_brappd_ketppd           :    40      192.02s   2.865%  ------ ||
|| eigenstates_pdos                     :     1      201.36s   3.004%  ------ ||
|| density_batch_interp_deposit         :   144      204.39s   3.049%  ------ ||
|| eigenstates_calculate                :     1      222.72s   3.322%  ------ ||
|| edft_apply_smearing_operator         :    54      268.97s   4.012%  ------ ||
|| restart_ngwfs_tightbox_output        :     6      286.85s   4.279%  ------ ||
|| properties_calculate                 :     1      390.81s   5.830%  ------ ||
|| projectors_gradient_batch            :    12      399.44s   5.959%  ------ ||
|| ngwf_gradient_build_batch            :    12      601.28s   8.970%  ------ ||
|| basis_dot_function_with_box          : 4.638M     812.84s  12.126%  ------ ||
|| integrals_locpot_mat_els_batch       :   102      855.23s  12.758%  ------ ||
|| integrals_locpot_dbl_grid            :    52      933.12s  13.920%  ------ ||
|| ngwf_gradient_batch                  :    12     1490.99s  22.242%  ------ ||
|| ngwf_gradient_lnv                    :     6     1500.42s  22.383%  ------ ||
|| density_batch_row_sums               :   144     2617.20s  39.042%  ------ ||
|| hamiltonian_lhxc_calculate           :    67     2648.54s  39.510%  ------ ||
|| density_on_dbl_grid                  :    72     2833.43s  42.268%  ------ ||
|| basis_add_function_to_box            : 14.39M    2968.99s  44.290%  ------ ||
|| edft_calculate                       :     6     3462.13s  51.647%  ------ ||
|| ngwf_cg_optimise                     :     1     6063.50s  90.453%  ------ ||
|| energy_and_forces                    :     1     6700.95s  99.962%  ------ ||
|| total_time                           :     1     6703.47s 100.000%  ------ ||
================================================================================
Overhead of generating timer report: 
- 0 ms averaging over threads,
- 30 ms ensuring consistency across MPI ranks,
- 5 ms printing in order.

Job completed: 25-04-2023 13:04 (+0100)

