 +---------------------------------------------------------------+
 |                                                               |
 |        ####### #     # ####### ####### ####### ######         |
 |        #     # ##    # #          #    #       #     #        |
 |        #     # # #   # #          #    #       #     #        |
 |        #     # #  #  # #####      #    #####   ######         |
 |        #     # #   # # #          #    #       #              |
 |        #     # #    ## #          #    #       #              |
 |        ####### #     # #######    #    ####### #              |
 |                                                               |
 |        Linear-Scaling Ab Initio Total Energy Program          |
 |                                                               |
 |          Release for academic collaborators of ODG            |
 |                                             Version 6.1.45    |
 | Remote: https://github.com/JacekDziedzic/onetep_jd.git        |
 | Local branch: develop                                         |
 | Commit ID: 05c3fa499aa23d698f188a6997282dfcfbb36ad7           |
 | Date: Mon Jul 3 12:49:06 2023 +0100                           |
 |                                                               |
 +---------------------------------------------------------------+
 |                                                               |
 |  Authors:                                                     |
 |  Jacek Dziedzic, Peter D. Haynes, Nicholas D. M. Hine,        |
 |  Arash A. Mostofi, Mike C. Payne and Chris-Kriton Skylaris    |
 |                                                               |
 |  Contributors:                                                |
 |  J. Aarons, L. Andrinopoulos, P. W. Avraam, R. A. Bell,       |
 |  A. Bhandari, G. A. Bramley, R. J. Charlton, S. J. Clark,     |
 |  R. J. Clements, G. C. Constantinescu, F. Corsetti,           |
 |  N. Corsini, O. Dieguez, S. M. M. Dubois, K. K. B. Duff,      |
 |  J. M. Escartin, M. Escobar Azor, A. Greco,                   |
 |  H. Helal, Q. O. Hill, L. P. Lee, J.-H. Li,                   |
 |  E. B. Linscott, G. Moynihan, D. D. O`Regan,                  |
 |  O. K. Okan, M. J. S. Phipps, C. J. Pickard,                  |
 |  J. C. A. Prentice, M. I. J. Probert, L. E. Ratcliff,         |
 |  M. Robinson, A. Ruiz Serrano, M. dos Santos Dias,            |
 |  J. S. Spencer, E. W. Tait, G. Teobaldi, D. Turban,           |
 |  V. Vitale, K. A. Wilkinson, C. Weber, J. C. Womack,          |
 |  N. Yeung and T. J. Zuehlsdorff                               |
 |                                                               |
 |                                   Copyright (c) 2004-2023     |
 |                                                               |
 |  Please cite:                                                 |
 |  "The ONETEP linear-scaling density functional theory program"|
 |   J. Chem. Phys. 152(17) 174111 (2020)                        |
 |                                                               |
 |          in all publications arising from your use of ONETEP. |
 |                                                               |
 +---------------------------------------------------------------+
 |                                                               |
 |   ONETEP is based on developments described in the following  |
 |   publications:                                               |
 |                                                               |
 |  "Nonorthogonal generalized Wannier function pseudopotential  |
 |   plane-wave method".                                         |
 |   C.-K. Skylaris, A. A. Mostofi, P. D. Haynes, O. Dieguez,    |
 |   M. C. Payne.                                                |
 |   Phys. Rev. B 66 035119 (2002).                              |
 |                                                               |
 |  "Preconditioned iterative minimization for linear-scaling    |
 |   electronic structure calculations".                         |
 |   A. A. Mostofi, P. D. Haynes, C.-K. Skylaris, M. C. Payne.   |
 |   J. Chem. Phys. 119(17), pp.8842-8848 (2003).                |
 |                                                               |
 |  "Total-energy calculations on a real space grid with         |
 |   localized functions and a plane-wave basis".                |
 |   A. A. Mostofi, C.-K. Skylaris, P. D. Haynes, M. C. Payne.   |
 |   Comput. Phys. Commun. 147, pp.788-802 (2002).               |
 |                                                               |
 |  "Accurate kinetic energy evaluation in electronic structure  |
 |   calculations with localized functions on real space grids"  |
 |   C.-K. Skylaris, A. A. Mostofi, P. D. Haynes, C. J. Pickard, |
 |   M. C. Payne.                                                |
 |   Comput. Phys. Commun. 140, pp.315-322 (2001).               |
 |                                                               |
 |  "Accurate ionic forces and geometry optimization in linear-  |
 |   scaling density-functional theory with local orbitals"      |
 |   N. D. M. Hine, M. Robinson, P. D. Haynes, C.-K. Skylaris,   |
 |   M. C. Payne, and A. A. Mostofi.                             |
 |   Phys. Rev. B 83 195102 (2011).                              |
 |                                                               |
 +---------------------------------------------------------------+

Job started: 11-07-2023 08:31 (+0100)
 
Reading parameters from file "C2SiH6_NNHO.dat" ...... done

If your calculation crashes here, before "Checking processes and threads..."
is displayed, then your stack size is insufficient.
If so, use "ulimit -s unlimited" at runtime.
You can disable this check with "check_stack_size F".

Checking processes and threads...
   Determining the default number of threads...
      No default threads set at compilation time: defaulting to 1.
      OpenMP library call suggests 4 threads.
      Hybrid MPI-OpenMP compilation detected.
      Number of MPI processes > 1.
      OMP_NUM_THREADS environment variable present and
      its value matches the one obtained from the OpenMP library call.
      Using this value as default.
      Default threads: 4
      Default applies to threads_max and threads_num_fftboxes.
      Settings in the input file override this default.
   ... done

   Running with 5 MPI processes.
   There are 5 MPI processes running on the same node as the root process.
   Each MPI process is using: 
               1 threads for simulation cell FFTs.
               1 threads for parallel FFT box operations.
               4 threads for loops over batched FFT box operations.
               4 threads in other parallel regions.
   MPI Interface: S1 (use mpi_f08) (-DMPI -DUSE_MPI_F08).
   MPI_ASYNC_PROTECTS_NONBLOCKING: Yes. MPI_SUBARRAYS_SUPPORTED: Yes.
... done

Basic input checks...... done

Reading geometry and species blocks from file "C2SiH6_NNHO.dat" ...
  <species_atomic_set> block not found: NGWF initialisation set to SOLVE
    
  Number of PPD points along a3 set to 1.  This is 
  the default value, it may have been provided also in the input file.
... done


--------------------------------------------------------------------------------
---------------------------------- INPUT FILE ----------------------------------
--------------------------------------------------------------------------------

TASK SINGLEPOINT                                                                
CUTOFF_ENERGY 800.0 eV                                                          
XC_FUNCTIONAL PBE                                                               
OUTPUT_DETAIL VERBOSE                                                           
DO_PROPERTIES T                                                                 
CUBE_FORMAT T                                                                   
WRITE_NGWF_PLOT T                                                               
NNHO T                                                                          
POPN_CALCULATE T                                                                
NGWF_ANALYSIS T                                                                 
%block lattice_cart                                                             
28.345894694999998      0.000000000000000       0.000000000000000               
0.000000000000000       28.345894694999998      0.000000000000000               
0.000000000000000       0.000000000000000       28.345894694999998              
%endblock lattice_cart                                                          
%block positions_abs                                                            
     Hash =  -000001798321408139388428
%endblock positions_abs                                                         
%block species                                                                  
H1 H 1 1 8.0                                                                    
C1 C 6 4 8.0                                                                    
H2 H 1 1 8.0                                                                    
C2 C 6 4 8.0                                                                    
Si Si 14 4 8.0                                                                  
%endblock species                                                               
%block species_pot                                                              
H1 H_04.recpot                                                                  
C1 C_01.recpot                                                                  
H2 H_04.recpot                                                                  
C2 C_01.recpot                                                                  
Si Si_00.recpot                                                                 
%endblock species_pot                                                           
%block species_ngwf_plot                                                        
H1                                                                              
C1                                                                              
Si                                                                              
%endblock species_ngwf_plot                                                     

--------------------------------------------------------------------------------
-------------------------------- END INPUT FILE --------------------------------
--------------------------------------------------------------------------------


 
<<<<<<<<<<<<<<<<<<<<<<<<<<<<<<<<< Full system >>>>>>>>>>>>>>>>>>>>>>>>>>>>>>>>>>
<<<<<<<<<<<<<<<<<<<<<<<<< Pseudopotential information >>>>>>>>>>>>>>>>>>>>>>>>>>
File: H_04.recpot [ 2001 points up to Gmax=  52.9 (1/bohr)]
  Atomic number:  1;  ionic charge:  1.000000
    Local potential
File: C_01.recpot [ 2001 points up to Gmax=  52.9 (1/bohr)]
  Atomic number:  6;  ionic charge:  4.000000
    Shell 1: l = 0; rc = 1.48 bohr
File: Si_00.recpot [ 2001 points up to Gmax=  52.9 (1/bohr)]
  Atomic number: 14;  ionic charge:  4.000000
    Shell 1: l = 1; rc = 1.84 bohr
    Shell 2: l = 2; rc = 1.84 bohr
<<<<<<<<<<<<<<<<<<<<<<<<<<<<<<<<<<<<<<<<>>>>>>>>>>>>>>>>>>>>>>>>>>>>>>>>>>>>>>>>

-------------------------- Atom counting information ---------------------------
Symbol    Natoms    Nngwfs    Nprojs
  H          6         6         0
  C          2         8         2
  Si         1         4         8
.......   ......    ......    ......
Totals:      9        18        10
--------------------------------------------------------------------------------

=============================== PSINC grid sizes ===============================
                      Simulation cell:   63 x  63 x  63
                              FFT-box:   63 x  63 x  63
                                  PPD:    7 x   7 x   1
Grid space d1=  0.449934836429a0 (KE cutoff=  37.52362Eh =1021.06973eV)
Grid space d2=  0.449934836429a0 (KE cutoff=  37.52362Eh =1021.06973eV)
Grid space d3=  0.449934836429a0 (KE cutoff=  37.52362Eh =1021.06973eV)
================================================================================

********************* Fourier parallelisation information **********************
       Coarse grid (whole simulation cell) dimensions:     63    63    63
          Real-space ('12') slabs/proc (min max mean):     12    13    12
         Recip-space ('23') slabs/proc (min max mean):      6     7     6
********************************************************************************

********************* Fourier parallelisation information **********************
       Double grid (whole simulation cell) dimensions:    126   126   126
          Real-space ('12') slabs/proc (min max mean):     25    26    25
         Recip-space ('23') slabs/proc (min max mean):     12    13    12
********************************************************************************

Atom SCF Calculation for H  : Z (AE atom) =   1 : Z (PS atom) =   1
Config String:
Orbitals (num,occ):  1     1.00
Orbitals   (num,l):  1        0
Real-space Grid (nr,dr,rmax): 1203    0.0066555740    8.0000000000
Spherical Bessel Basis (nsws,lmax,cutoff):   47    0  176.3967570603
Confining potential (l,width,scale):  0    3.0000000000  100.0000000000
  1         -0.3194257691   -0.2393854593    0.2820953124   -0.2424203209
  2         -0.3951823392   -0.2377116493    0.2886404059   -0.2475147891
  3         -0.4317044583   -0.2352244387    0.2921333887   -0.2514046172
  4         -0.4470703708   -0.2341892222    0.2934391879   -0.2531009782
  5         -0.4532132900   -0.2338556667    0.2938388426   -0.2537313520
  6         -0.4556579251   -0.2337612552    0.2939448584   -0.2539550462
  7         -0.4566418315   -0.2337377355    0.2939680120   -0.2540342273
  8         -0.4570437922   -0.2337331116    0.2939708287   -0.2540627372
  9         -0.4572102946   -0.2337328328    0.2939698291   -0.2540732650
 10         -0.4572800424   -0.2337332404    0.2939687193   -0.2540772588
 11         -0.4573095100   -0.2337335791    0.2939680317   -0.2540788122
 12         -0.4573220379   -0.2337337762    0.2939676699   -0.2540794294
 13         -0.4573273880   -0.2337338775    0.2939674931   -0.2540796787
 14         -0.4573296803   -0.2337339266    0.2939674099   -0.2540797808
 15         -0.4573306647   -0.2337339495    0.2939673718   -0.2540798230
 16         -0.4573310882   -0.2337339601    0.2939673545   -0.2540798406
 17         -0.4573312706   -0.2337339649    0.2939673467   -0.2540798479
 18         -0.4573313493   -0.2337339670    0.2939673433   -0.2540798510
Atom SCF converged after  18 iterations to a total energy of     -0.45733135

Atom SCF Calculation for C  : Z (AE atom) =   6 : Z (PS atom) =   4
Config String:
Orbitals (num,occ):  2     2.00 2.00
Orbitals   (num,l):  2        0    1
Real-space Grid (nr,dr,rmax): 1203    0.0066555740    8.0000000000
Spherical Bessel Basis (nsws,lmax,cutoff):   47    1  176.3967570603
Confining potential (l,width,scale):  0    3.0000000000  100.0000000000
Confining potential (l,width,scale):  1    3.0000000000  100.0000000000
  1         -5.2976922011   -1.3069684169    4.5135249990   -1.4493313817
  2         -5.3721716256   -1.3429755895    4.4750154450   -1.4361613026
  3         -5.3809959565   -1.3617365618    4.4541655428   -1.4305930207
  4         -5.3918938866   -1.3667928461    4.4484735100   -1.4294652294
  5         -5.3956096428   -1.3688539142    4.4461376126   -1.4290734646
  6         -5.3968271862   -1.3696852393    4.4451910874   -1.4289366866
  7         -5.3972028401   -1.3700178062    4.4448112275   -1.4288900460
  8         -5.3973067903   -1.3701500158    4.4446598370   -1.4288749220
  9         -5.3973286940   -1.3702023868    4.4445997329   -1.4288704293
 10         -5.3973289850   -1.3702230869    4.4445759233   -1.4288693188
 11         -5.3973254264   -1.3702312560    4.4445665049   -1.4288691775
 12         -5.3973224003   -1.3702344755    4.4445627836   -1.4288692549
 13         -5.3973208708   -1.3702354890    4.4445616088   -1.4288693270
 14         -5.3973198783   -1.3702360102    4.4445610034   -1.4288693814
 15         -5.3973192535   -1.3702362780    4.4445606917   -1.4288694190
 16         -5.3973188684   -1.3702364155    4.4445605313   -1.4288694437
 17         -5.3973186349   -1.3702364860    4.4445604489   -1.4288694595
 18         -5.3973184951   -1.3702365221    4.4445604065   -1.4288694693
 19         -5.3973184122   -1.3702365405    4.4445603848   -1.4288694753
Atom SCF converged after  19 iterations to a total energy of     -5.39731841

Atom SCF Calculation for H  : Z (AE atom) =   1 : Z (PS atom) =   1
Config String:
Orbitals (num,occ):  1     1.00
Orbitals   (num,l):  1        0
Real-space Grid (nr,dr,rmax): 1203    0.0066555740    8.0000000000
Spherical Bessel Basis (nsws,lmax,cutoff):   47    0  176.3967570603
Confining potential (l,width,scale):  0    3.0000000000  100.0000000000
  1         -0.3194257691   -0.2393854593    0.2820953124   -0.2424203209
  2         -0.3951823392   -0.2377116493    0.2886404059   -0.2475147891
  3         -0.4317044583   -0.2352244387    0.2921333887   -0.2514046172
  4         -0.4470703708   -0.2341892222    0.2934391879   -0.2531009782
  5         -0.4532132900   -0.2338556667    0.2938388426   -0.2537313520
  6         -0.4556579251   -0.2337612552    0.2939448584   -0.2539550462
  7         -0.4566418315   -0.2337377355    0.2939680120   -0.2540342273
  8         -0.4570437922   -0.2337331116    0.2939708287   -0.2540627372
  9         -0.4572102946   -0.2337328328    0.2939698291   -0.2540732650
 10         -0.4572800424   -0.2337332404    0.2939687193   -0.2540772588
 11         -0.4573095100   -0.2337335791    0.2939680317   -0.2540788122
 12         -0.4573220379   -0.2337337762    0.2939676699   -0.2540794294
 13         -0.4573273880   -0.2337338775    0.2939674931   -0.2540796787
 14         -0.4573296803   -0.2337339266    0.2939674099   -0.2540797808
 15         -0.4573306647   -0.2337339495    0.2939673718   -0.2540798230
 16         -0.4573310882   -0.2337339601    0.2939673545   -0.2540798406
 17         -0.4573312706   -0.2337339649    0.2939673467   -0.2540798479
 18         -0.4573313493   -0.2337339670    0.2939673433   -0.2540798510
Atom SCF converged after  18 iterations to a total energy of     -0.45733135

Atom SCF Calculation for C  : Z (AE atom) =   6 : Z (PS atom) =   4
Config String:
Orbitals (num,occ):  2     2.00 2.00
Orbitals   (num,l):  2        0    1
Real-space Grid (nr,dr,rmax): 1203    0.0066555740    8.0000000000
Spherical Bessel Basis (nsws,lmax,cutoff):   47    1  176.3967570603
Confining potential (l,width,scale):  0    3.0000000000  100.0000000000
Confining potential (l,width,scale):  1    3.0000000000  100.0000000000
  1         -5.2976922011   -1.3069684169    4.5135249990   -1.4493313817
  2         -5.3721716256   -1.3429755895    4.4750154450   -1.4361613026
  3         -5.3809959565   -1.3617365618    4.4541655428   -1.4305930207
  4         -5.3918938866   -1.3667928461    4.4484735100   -1.4294652294
  5         -5.3956096428   -1.3688539142    4.4461376126   -1.4290734646
  6         -5.3968271862   -1.3696852393    4.4451910874   -1.4289366866
  7         -5.3972028401   -1.3700178062    4.4448112275   -1.4288900460
  8         -5.3973067903   -1.3701500158    4.4446598370   -1.4288749220
  9         -5.3973286940   -1.3702023868    4.4445997329   -1.4288704293
 10         -5.3973289850   -1.3702230869    4.4445759233   -1.4288693188
 11         -5.3973254264   -1.3702312560    4.4445665049   -1.4288691775
 12         -5.3973224003   -1.3702344755    4.4445627836   -1.4288692549
 13         -5.3973208708   -1.3702354890    4.4445616088   -1.4288693270
 14         -5.3973198783   -1.3702360102    4.4445610034   -1.4288693814
 15         -5.3973192535   -1.3702362780    4.4445606917   -1.4288694190
 16         -5.3973188684   -1.3702364155    4.4445605313   -1.4288694437
 17         -5.3973186349   -1.3702364860    4.4445604489   -1.4288694595
 18         -5.3973184951   -1.3702365221    4.4445604065   -1.4288694693
 19         -5.3973184122   -1.3702365405    4.4445603848   -1.4288694753
Atom SCF converged after  19 iterations to a total energy of     -5.39731841

Atom SCF Calculation for Si : Z (AE atom) =  14 : Z (PS atom) =   4
Config String:
Orbitals (num,occ):  2     2.00 2.00
Orbitals   (num,l):  2        0    1
Real-space Grid (nr,dr,rmax): 1203    0.0066555740    8.0000000000
Spherical Bessel Basis (nsws,lmax,cutoff):   47    2  176.3967570603
Confining potential (l,width,scale):  0    3.0000000000  100.0000000000
Confining potential (l,width,scale):  1    3.0000000000  100.0000000000
  1         -3.4747201055   -0.0915024141    4.5135249990   -1.4493313817
  2         -3.4046891039   -0.9215069450    3.1350872062   -1.0273648727
  3         -3.5538995330   -1.0114866874    3.0274682055   -1.0025259654
  4         -3.6382477975   -1.0077122208    3.0334400646   -1.0095487066
  5         -3.6867484217   -1.0018818308    3.0412807007   -1.0155128479
  6         -3.7138998959   -0.9975429032    3.0468002279   -1.0194631977
  7         -3.7289067838   -0.9948913204    3.0500603717   -1.0218113388
  8         -3.7371250547   -0.9934179044    3.0518428334   -1.0231296388
  9         -3.7415992451   -0.9926322548    3.0527879753   -1.0238499839
 10         -3.7440285529   -0.9922183792    3.0532852966   -1.0242393923
 11         -3.7453467583   -0.9920003268    3.0535473611   -1.0244492177
 12         -3.7460623375   -0.9918849991    3.0536860192   -1.0245622503
 13         -3.7464510940   -0.9918237377    3.0537596919   -1.0246231909
 14         -3.7466624839   -0.9917910730    3.0537989768   -1.0246560834
 15         -3.7467775277   -0.9917736036    3.0538199849   -1.0246738569
 16         -3.7468401867   -0.9917642387    3.0538312443   -1.0246834706
 17         -3.7468743384   -0.9917592094    3.0538372893   -1.0246886755
 18         -3.7468929645   -0.9917565045    3.0538405392   -1.0246914957
 19         -3.7469031290   -0.9917550482    3.0538422883   -1.0246930249
 20         -3.7469086789   -0.9917542633    3.0538432306   -1.0246938547
 21         -3.7469117107   -0.9917538400    3.0538437386   -1.0246943052
 22         -3.7469133678   -0.9917536115    3.0538440127   -1.0246945499
 23         -3.7469142739   -0.9917534881    3.0538441606   -1.0246946829
 24         -3.7469147695   -0.9917534214    3.0538442405   -1.0246947552
 25         -3.7469150408   -0.9917533853    3.0538442837   -1.0246947946
 26         -3.7469151893   -0.9917533658    3.0538443071   -1.0246948160
 27         -3.7469152707   -0.9917533552    3.0538443197   -1.0246948277
Atom SCF converged after  27 iterations to a total energy of     -3.74691527

BC: Task: SINGLEPOINT
BC: +++++++++++++++ Summary of boundary conditions ++++++++++++++
BC: |       Component       |     Keyword     |   Periodicity   |
BC: |                       |                 |     X  Y  Z [1] |
BC: |-----------------------------------------------------------|
BC: | Ion-ion               | ion_ion_bc [2]  |     P  P  P     |
BC: | Local pseudopotential | pspot_bc [3]    |     P  P  P     |
BC: +++++++++++++++++++++++++++++++++++++++++++++++++++++++++++++
BC: P: Periodic, O: Open.
BC: [1] Not strictly along X, Y, Z but rather along lattice vectors A1, A2, A3.
BC: [2] Also affected by: pbc_correction_cutoff, cutoff_coulomb_type,
BC:     is_smeared_ion_rep, is_implicit_solvent, openbc_ion_ion.
BC: [3] Also affected by: is_smeared_ion_rep, is_implicit_solvent, openbc_pspot.

Determining parallel strategy ...
... using space-filling curve
... NGWF load balancing: max      4;  min      2;  average      4
... Projector load balancing: max      8;  min      0;  average      2
... done
Calculating Ewald energy ...
              Ewald: real-space energy =           24.748827
        Ewald: reciprocal-space energy =            2.607988
         Ewald: (sum_charge)**2 energy =            2.747540
         Ewald: (sum_charge**2) energy =            2.747540
                          Ewald energy =           21.861735
Basis initialisation ...... NGWF spheres initialised
... Projector spheres initialised
... NGWF tight boxes initialised
... Tight-boxes gathered
... NGWF basis size (local,global):         26456       119258
... Nonlocal pseudopotential projector initialisation
... done

========================== Sparse matrix information ===========================
                        Overlap matrix filling: 100.00%
                        Density kernel filling: 100.00% (known to be dense)
              NGWF-Proj overlap matrix filling: 100.00%
                    Hamiltonian matrix filling: 100.00%
                  NGWF diagonal matrix filling:  16.67%
                             KS matrix filling: 100.00% 
                           KSKS matrix filling: 100.00% 
================================================================================

Sparse matrix initialisation ... done
NGWF initialisation ... done
============ Calculation of NGWF S^-1 using Hotelling algorithm ================ 
         Iteration  |  Frobenius norm and Maximum abs value    (of I-S*S_n^-1)   
               1       0.39296096E+01     0.93676805E+00
               2       0.37216623E+01     0.88235204E+00
               3       0.34568646E+01     0.79357945E+00
               4       0.31764237E+01     0.69362948E+00
               5       0.29263314E+01     0.66446297E+00
               6       0.27118940E+01     0.63780213E+00
               7       0.24546163E+01     0.59248023E+00
               8       0.20591315E+01     0.51233297E+00
               9       0.14930268E+01     0.38495989E+00
              10       0.81758637E+00     0.21992895E+00
              11       0.26158762E+00     0.73737990E-01
              12       0.29437872E-01     0.87519053E-02
              13       0.42701391E-03     0.13464236E-03
              14       0.11602263E-06     0.37272983E-07
              15       0.12392004E-13     0.47739590E-14
================================================================================
Up spin density kernel initialisation ... 
======= Optimisation of K by Palser-Manolopoulos canonical purification ======== 
         Iteration  |  Band structure energy |    c_n   
               1          -3.34305810116701    0.4763268
               2          -3.73648233258103    0.4786032
               3          -4.10963515148568    0.4825903
               4          -4.37474339652842    0.4898493
               5          -4.50947949507423    0.5021051
               6          -4.55540418827614    0.5044387
               7          -4.56369153007880    0.5003029
               8          -4.56426332386093    0.5000006
               9          -4.56426669318907    0.5000003
              10          -4.56426669330933    0.5000003
Termination criterion satisfied: band energy change below threshold.
Final occupancy bounds: [    0.00000000000000:    1.00000000000000]
Closest occupancy to 0.5:     1.00000000000000
================================================================================
... done

Writing density kernel to file "C2SiH6_NNHO.dkn" ... done
Writing NNHO plot files in formats: CUBE ...  done

>>> Optimising kernel for current NGWFs:
   Initial electron number for spin 1:      18.00000000
     Final electron number for spin 1:      18.00000000

=================== Penalty functional idempotency correction ==================
 RMS occupancy error at iteration   1:  0.000000 (step -0.5000 Ne1=     18.0000)
            Final RMS occupancy error   :  0.000000 (Ne1=     18.0000)
               Final occupancy bounds   : [  0.0000,  1.0000]
================================================================================

................................................................................
<<<<<<<<<<<<<< LNV (Original version) density kernel optimisation >>>>>>>>>>>>>>
~~~~~~~~~~~~~~~~~~~~~~~~~~~~~~~~~~~~~~~~~~~~~~~~~~~~~~~~~~~~~~~~~~~~~~~~~~~~~~~~
   iter  |      energy (Eh)       | rms gradient |  commutator  |   dE (Eh)
      ideal mu1:      -0.418588846635
             Q0:         -18.506116431887
             G0:      -0.376757601524
   RMS gradient:       0.034100324096
     Trial step:       0.500000000000
             Q1:         -18.571214392614
 Quadratic coef:       0.123280840035
 Linear coef   :      -0.188378800762
           Qmin:         -18.578079302530
Quadratic minimum step length (  0.382011512715) accepted
    Initial Ne1:      18.00000000
      Final Ne1:      18.00000000

=================== Penalty functional idempotency correction ==================
 RMS occupancy error at iteration   1:  0.004013 (step -0.4906 Ne1=     18.0000)
 RMS occupancy error at iteration   2:  0.000024 (step -0.5000 Ne1=     18.0000)
            Final RMS occupancy error   :  0.000000 (Ne1=     18.0000)
               Final occupancy bounds   : [  0.0000,  1.0000]
================================================================================

    1        -1.850611643189E+01     3.4100E-02     3.4100E-02
      ideal mu1:      -0.486645779204
             Q0:         -18.578833742820
             G0:      -0.023917267475
   RMS gradient:       0.008558440553
     Trial step:       0.437042053306
             Q1:         -18.586006963462
 Quadratic coef:       0.003279631045
 Linear coef   :      -0.010452851687
           Qmin:         -18.587162584303
Quadratic minimum step length (  0.696470990412) accepted
    Initial Ne1:      17.99999984
      Final Ne1:      18.00000000

=================== Penalty functional idempotency correction ==================
 RMS occupancy error at iteration   1:  0.001929 (step -0.4943 Ne1=     18.0000)
 RMS occupancy error at iteration   2:  0.000008 (step -0.5000 Ne1=     18.0000)
            Final RMS occupancy error   :  0.000000 (Ne1=     18.0000)
               Final occupancy bounds   : [  0.0000,  1.0000]
================================================================================

    2        -1.857883374282E+01     8.5584E-03     8.5584E-03    -7.2717E-02
      ideal mu1:      -0.479620743089
             Q0:         -18.587202318469
             G0:      -0.002601667790
   RMS gradient:       0.002827004159
     Trial step:       0.551712888845
             Q1:         -18.588179291746
 Quadratic coef:       0.000458400375
 Linear coef   :      -0.001435373652
           Qmin:         -18.588325952760
Quadratic minimum step length (  0.863779991918) accepted
    Initial Ne1:      17.99999995
      Final Ne1:      18.00000000

=================== Penalty functional idempotency correction ==================
 RMS occupancy error at iteration   1:  0.000592 (step -0.4981 Ne1=     18.0000)
 RMS occupancy error at iteration   2:  0.000001 (step -0.5000 Ne1=     18.0000)
            Final RMS occupancy error   :  0.000000 (Ne1=     18.0000)
               Final occupancy bounds   : [  0.0000,  1.0000]
================================================================================

    3        -1.858720231847E+01     2.8270E-03     2.8270E-03    -8.3686E-03
      ideal mu1:      -0.480875674096
             Q0:         -18.588331586397
             G0:      -0.000398496015
   RMS gradient:       0.001105803899
     Trial step:       0.690332206020
             Q1:         -18.588421650265
 Quadratic coef:       0.000185030765
 Linear coef   :      -0.000275094633
           Qmin:         -18.588433835687
Quadratic minimum step length (  0.513175970827) accepted
    Initial Ne1:      18.00000000
      Final Ne1:      18.00000000

=================== Penalty functional idempotency correction ==================
 RMS occupancy error at iteration   1:  0.000080 (step -0.4997 Ne1=     18.0000)
            Final RMS occupancy error   :  0.000000 (Ne1=     18.0000)
               Final occupancy bounds   : [ -0.0000,  1.0000]
================================================================================

    4        -1.858833158640E+01     1.1058E-03     1.1058E-03    -1.1293E-03
      ideal mu1:      -0.482996780801
    5        -1.858843398574E+01     4.9703E-04     4.9703E-04    -1.0240E-04
Finished density kernel iterations (   5)

Writing density kernel to file "C2SiH6_NNHO.dkn" ... done


>>> Density kernel optimised for the current NGWF basis:
     ~~~~~~~~~~~~~~~~~~~~~~~~~~~~~~~~~~~~~~~~~~~~~~~~~~~~~~~~~~~
     Total energy                =  -1.85884339857367E+01  Eh
     Estimated bandgap           =   2.5753E-01  Eh
     RMS occupancy error         =   1.4121E-08
     [H,K] commutator            =   4.9703E-04
     Occupancy bounds            = [ -0.000:  1.000]
     ~~~~~~~~~~~~~~~~~~~~~~~~~~~~~~~~~~~~~~~~~~~~~~~~~~~~~~~~~~~




################################################################################
########################### NGWF CG iteration  001 #############################
################################################################################
****** Reciprocal space K.E. preconditioning with k_zero =  3.0000 a0^-1 *******
Constructing Nonorthogonal Natural Hybrid Orbitals from current NGWFs....  done

>>> Checking for convergence of NGWFs:   NOT CONVERGED
  ========================================================================
         NGWF RMS gradient =  9.2971E-04 >  2.0000E-06  | above tolerance
  ========================================================================

>>> Improving NGWFs using line search:
============ Calculation of NGWF S^-1 using Hotelling algorithm ================ 
         Iteration  |  Frobenius norm and Maximum abs value    (of I-S*S_n^-1)   
               1       0.22329497E-02     0.50941092E-03
               2       0.13606051E-05     0.45722406E-06
               3       0.82139821E-12     0.25979219E-12
================================================================================
============ Calculation of NGWF S^-1 using Hotelling algorithm ================ 
         Iteration  |  Frobenius norm and Maximum abs value    (of I-S*S_n^-1)   
               1       0.48226346E-01     0.16107566E-01
               2       0.64801981E-03     0.22866400E-03
               3       0.12130568E-06     0.45103062E-07
               4       0.51642050E-14     0.17763568E-14
================================================================================
============ Calculation of NGWF S^-1 using Hotelling algorithm ================ 
         Iteration  |  Frobenius norm and Maximum abs value    (of I-S*S_n^-1)   
               1       0.13099534E-02     0.42371418E-03
               2       0.49041282E-06     0.15614272E-06
               3       0.66445800E-13     0.21316282E-13
================================================================================
------------------------------- NGWF line search -------------------------------
RMS gradient                =       0.00092971345559
Trial step length           =               0.122474
Gradient along search dir.  =         -0.36633693271
Functional at step 0        =     -18.58843398573671
Functional at step 1        =     -18.63153698825037
Rejected quadratic step     =               1.557621
Functional at new step 1    =     -18.86920108603958
Functional predicted        =     -18.86927219545248
Selected quadratic step     =               1.533224
Conjugate gradients coeff.  =               0.000000
--------------------------- NGWF line search finished --------------------------
                                               
Writing NGWFs to file "C2SiH6_NNHO.tightbox_ngwfs"....  done

>>> Optimising kernel for current NGWFs:
   Initial electron number for spin 1:      18.09049283
     Final electron number for spin 1:      18.00000000

=================== Penalty functional idempotency correction ==================
 RMS occupancy error at iteration   1:  0.003124 (step -0.4940 Ne1=     18.0000)
 RMS occupancy error at iteration   2:  0.000019 (step -0.5000 Ne1=     18.0000)
            Final RMS occupancy error   :  0.000000 (Ne1=     18.0000)
               Final occupancy bounds   : [  0.0000,  1.0000]
================================================================================

................................................................................
<<<<<<<<<<<<<< LNV (Original version) density kernel optimisation >>>>>>>>>>>>>>
~~~~~~~~~~~~~~~~~~~~~~~~~~~~~~~~~~~~~~~~~~~~~~~~~~~~~~~~~~~~~~~~~~~~~~~~~~~~~~~~
   iter  |      energy (Eh)       | rms gradient |  commutator  |   dE (Eh)
      ideal mu1:      -0.422024915211
             Q0:         -18.869470006686
             G0:      -0.004402515313
   RMS gradient:       0.003686191833
     Trial step:       0.595199042352
             Q1:         -18.870930688462
 Quadratic coef:       0.001159691122
 Linear coef   :      -0.002620372898
           Qmin:         -18.870950218528
Quadratic minimum step length (  0.672439156383) accepted
    Initial Ne1:      17.99999992
      Final Ne1:      18.00000000

=================== Penalty functional idempotency correction ==================
 RMS occupancy error at iteration   1:  0.000194 (step -0.4994 Ne1=     18.0000)
            Final RMS occupancy error   :  0.000000 (Ne1=     18.0000)
               Final occupancy bounds   : [  0.0000,  1.0000]
================================================================================

    1        -1.886947000669E+01     3.6862E-03     3.6862E-03
      ideal mu1:      -0.426417329366
             Q0:         -18.870951392808
             G0:      -0.000325659054
   RMS gradient:       0.001001732185
     Trial step:       0.632641400731
             Q1:         -18.871084916439
 Quadratic coef:       0.000072501770
 Linear coef   :      -0.000206025400
           Qmin:         -18.871097756358
Quadratic minimum step length (  0.898875973942) accepted
    Initial Ne1:      18.00000306
      Final Ne1:      18.00000000

=================== Penalty functional idempotency correction ==================
 RMS occupancy error at iteration   1:  0.000056 (step -0.4998 Ne1=     18.0000)
            Final RMS occupancy error   :  0.000000 (Ne1=     18.0000)
               Final occupancy bounds   : [ -0.0000,  1.0000]
================================================================================

    2        -1.887095139281E+01     1.0017E-03     1.0017E-03    -1.4814E-03
      ideal mu1:      -0.426235238889
             Q0:         -18.871097786446
             G0:      -0.000030570159
   RMS gradient:       0.000307196301
     Trial step:       0.754099565865
             Q1:         -18.871109935621
 Quadratic coef:       0.000010903770
 Linear coef   :      -0.000023052944
           Qmin:         -18.871109971182
Quadratic minimum step length (  0.797165363058) accepted
    Initial Ne1:      18.00000052
      Final Ne1:      18.00000000

=================== Penalty functional idempotency correction ==================
 RMS occupancy error at iteration   1:  0.000008 (step -0.5000 Ne1=     18.0000)
            Final RMS occupancy error   :  0.000000 (Ne1=     18.0000)
               Final occupancy bounds   : [  0.0000,  1.0000]
================================================================================

    3        -1.887109778645E+01     3.0720E-04     3.0720E-04    -1.4639E-04
      ideal mu1:      -0.426583533305
             Q0:         -18.871109972569
             G0:      -0.000005029960
   RMS gradient:       0.000124588584
     Trial step:       0.775333511597
             Q1:         -18.871110932760
 Quadratic coef:       0.000002939706
 Linear coef   :      -0.000003899897
           Qmin:         -18.871111265997
Quadratic minimum step length (  0.514289602500) accepted
    Initial Ne1:      18.00000004
      Final Ne1:      18.00000000

=================== Penalty functional idempotency correction ==================
 RMS occupancy error at iteration   1:  0.000001 (step -0.5000 Ne1=     18.0000)
            Final RMS occupancy error   :  0.000000 (Ne1=     18.0000)
               Final occupancy bounds   : [  0.0000,  1.0000]
================================================================================

    4        -1.887110997257E+01     1.2459E-04     1.2459E-04    -1.2186E-05
      ideal mu1:      -0.426378004159
    5        -1.887111126603E+01     4.7788E-05     4.7788E-05    -1.2935E-06
Finished density kernel iterations (   5)

Writing density kernel to file "C2SiH6_NNHO.dkn" ... done


>>> Density kernel optimised for the current NGWF basis:
     ~~~~~~~~~~~~~~~~~~~~~~~~~~~~~~~~~~~~~~~~~~~~~~~~~~~~~~~~~~~
     Total energy                =  -1.88711112660269E+01  Eh
     Estimated bandgap           =   2.5738E-01  Eh
     RMS occupancy error         =   7.3591E-12
     [H,K] commutator            =   4.7788E-05
     Occupancy bounds            = [  0.000:  1.000]
     ~~~~~~~~~~~~~~~~~~~~~~~~~~~~~~~~~~~~~~~~~~~~~~~~~~~~~~~~~~~




################################################################################
########################### NGWF CG iteration  002 #############################
################################################################################
****** Reciprocal space K.E. preconditioning with k_zero =  3.0000 a0^-1 *******
Constructing Nonorthogonal Natural Hybrid Orbitals from current NGWFs....  done

>>> Checking for convergence of NGWFs:   NOT CONVERGED
  ========================================================================
         NGWF RMS gradient =  4.9743E-04 >  2.0000E-06  | above tolerance
  ========================================================================

>>> Improving NGWFs using line search:
============ Calculation of NGWF S^-1 using Hotelling algorithm ================ 
         Iteration  |  Frobenius norm and Maximum abs value    (of I-S*S_n^-1)   
               1       0.10537919E-01     0.32385203E-02
               2       0.33063233E-04     0.10574659E-04
               3       0.36720074E-09     0.12066959E-09
               4       0.28847649E-14     0.11102230E-14
================================================================================
============ Calculation of NGWF S^-1 using Hotelling algorithm ================ 
         Iteration  |  Frobenius norm and Maximum abs value    (of I-S*S_n^-1)   
               1       0.17771440E-01     0.54807458E-02
               2       0.94644844E-04     0.29388885E-04
               3       0.29655267E-08     0.86253238E-09
               4       0.36810536E-14     0.13322676E-14
================================================================================
------------------------------- NGWF line search -------------------------------
RMS gradient                =       0.00049742689916
Trial step length           =               0.433337
Gradient along search dir.  =         -0.10502051724
Functional at step 0        =     -18.87111126602692
Functional at step 1        =     -18.90694875447231
Functional predicted        =     -18.92464575925574
Selected quadratic step     =               1.019505
Conjugate gradients coeff.  =               0.286260
--------------------------- NGWF line search finished --------------------------
                                               
Writing NGWFs to file "C2SiH6_NNHO.tightbox_ngwfs"....  done

>>> Optimising kernel for current NGWFs:
   Initial electron number for spin 1:      18.08005624
     Final electron number for spin 1:      18.00000000

=================== Penalty functional idempotency correction ==================
 RMS occupancy error at iteration   1:  0.002699 (step -0.4941 Ne1=     18.0000)
 RMS occupancy error at iteration   2:  0.000017 (step -0.5000 Ne1=     18.0000)
            Final RMS occupancy error   :  0.000000 (Ne1=     18.0000)
               Final occupancy bounds   : [  0.0000,  1.0000]
================================================================================

................................................................................
<<<<<<<<<<<<<< LNV (Original version) density kernel optimisation >>>>>>>>>>>>>>
~~~~~~~~~~~~~~~~~~~~~~~~~~~~~~~~~~~~~~~~~~~~~~~~~~~~~~~~~~~~~~~~~~~~~~~~~~~~~~~~
   iter  |      energy (Eh)       | rms gradient |  commutator  |   dE (Eh)
      ideal mu1:      -0.403973563828
             Q0:         -18.924862796999
             G0:      -0.000772432664
   RMS gradient:       0.001544037380
     Trial step:       0.631463350864
             Q1:         -18.925120469885
 Quadratic coef:       0.000230090032
 Linear coef   :      -0.000487762918
           Qmin:         -18.925121296533
Quadratic minimum step length (  0.669312798282) accepted
    Initial Ne1:      17.99999995
      Final Ne1:      18.00000000

=================== Penalty functional idempotency correction ==================
 RMS occupancy error at iteration   1:  0.000033 (step -0.4999 Ne1=     18.0000)
            Final RMS occupancy error   :  0.000000 (Ne1=     18.0000)
               Final occupancy bounds   : [ -0.0000,  1.0000]
================================================================================

    1        -1.892486279700E+01     1.5440E-03     1.5440E-03
      ideal mu1:      -0.406305658853
             Q0:         -18.925121310053
             G0:      -0.000055749415
   RMS gradient:       0.000414882307
     Trial step:       0.650112684370
             Q1:         -18.925138760416
 Quadratic coef:       0.000018793039
 Linear coef   :      -0.000036243402
           Qmin:         -18.925138784398
Quadratic minimum step length (  0.626888915342) accepted
    Initial Ne1:      18.00000005
      Final Ne1:      18.00000000

=================== Penalty functional idempotency correction ==================
 RMS occupancy error at iteration   1:  0.000006 (step -0.5000 Ne1=     18.0000)
            Final RMS occupancy error   :  0.000000 (Ne1=     18.0000)
               Final occupancy bounds   : [  0.0000,  1.0000]
================================================================================

    2        -1.892512131005E+01     4.1488E-04     4.1488E-04    -2.5851E-04
      ideal mu1:      -0.405516688385
             Q0:         -18.925138785210
             G0:      -0.000011470835
   RMS gradient:       0.000188150525
     Trial step:       0.638395203267
             Q1:         -18.925141611936
 Quadratic coef:       0.000004496200
 Linear coef   :      -0.000007322926
           Qmin:         -18.925141766908
Quadratic minimum step length (  0.519874676062) accepted
    Initial Ne1:      18.00000000
      Final Ne1:      18.00000000

=================== Penalty functional idempotency correction ==================
 RMS occupancy error at iteration   1:  0.000001 (step -0.5000 Ne1=     18.0000)
            Final RMS occupancy error   :  0.000000 (Ne1=     18.0000)
               Final occupancy bounds   : [  0.0000,  1.0000]
================================================================================

    3        -1.892513878521E+01     1.8815E-04     1.8815E-04    -1.7475E-05
      ideal mu1:      -0.405755863905
             Q0:         -18.925141767028
             G0:      -0.000000348037
   RMS gradient:       0.000032774785
     Trial step:       0.576095043806
             Q1:         -18.925141886486
 Quadratic coef:       0.000000081044
 Linear coef   :      -0.000000200502
           Qmin:         -18.925141891037
Quadratic minimum step length (  0.712623626107) accepted
    Initial Ne1:      18.00000000
      Final Ne1:      18.00000000

=================== Penalty functional idempotency correction ==================
 RMS occupancy error at iteration   1:  0.000000 (step -0.5000 Ne1=     18.0000)
            Final RMS occupancy error   :  0.000000 (Ne1=     18.0000)
               Final occupancy bounds   : [  0.0000,  1.0000]
================================================================================

    4        -1.892514176703E+01     3.2775E-05     3.2775E-05    -2.9818E-06
      ideal mu1:      -0.405749297366
    5        -1.892514189104E+01     8.1994E-06     8.1994E-06    -1.2401E-07
Finished density kernel iterations (   5)

Writing density kernel to file "C2SiH6_NNHO.dkn" ... done


>>> Density kernel optimised for the current NGWF basis:
     ~~~~~~~~~~~~~~~~~~~~~~~~~~~~~~~~~~~~~~~~~~~~~~~~~~~~~~~~~~~
     Total energy                =  -1.89251418910375E+01  Eh
     Estimated bandgap           =   2.5234E-01  Eh
     RMS occupancy error         =   3.8273E-14
     [H,K] commutator            =   8.1994E-06
     Occupancy bounds            = [  0.000:  1.000]
     ~~~~~~~~~~~~~~~~~~~~~~~~~~~~~~~~~~~~~~~~~~~~~~~~~~~~~~~~~~~




################################################################################
########################### NGWF CG iteration  003 #############################
################################################################################
****** Reciprocal space K.E. preconditioning with k_zero =  3.0000 a0^-1 *******
Constructing Nonorthogonal Natural Hybrid Orbitals from current NGWFs....  done

>>> Checking for convergence of NGWFs:   NOT CONVERGED
  ========================================================================
         NGWF RMS gradient =  2.6656E-04 >  2.0000E-06  | above tolerance
  ========================================================================

>>> Improving NGWFs using line search:
============ Calculation of NGWF S^-1 using Hotelling algorithm ================ 
         Iteration  |  Frobenius norm and Maximum abs value    (of I-S*S_n^-1)   
               1       0.13273662E-01     0.33361107E-02
               2       0.57257878E-04     0.13381152E-04
               3       0.13198152E-08     0.29173997E-09
               4       0.39472799E-14     0.17763568E-14
================================================================================
============ Calculation of NGWF S^-1 using Hotelling algorithm ================ 
         Iteration  |  Frobenius norm and Maximum abs value    (of I-S*S_n^-1)   
               1       0.11154296E-01     0.28292169E-02
               2       0.39870103E-04     0.94795211E-05
               3       0.62200132E-09     0.14138657E-09
               4       0.33692160E-14     0.15543122E-14
================================================================================
------------------------------- NGWF line search -------------------------------
RMS gradient                =       0.00026656139756
Trial step length           =               0.664672
Gradient along search dir.  =         -0.03049874685
Functional at step 0        =     -18.92514189103753
Functional at step 1        =     -18.93951457020237
Functional predicted        =     -18.94255760647872
Selected quadratic step     =               1.142061
Conjugate gradients coeff.  =               0.287168
--------------------------- NGWF line search finished --------------------------
                                               
Writing NGWFs to file "C2SiH6_NNHO.tightbox_ngwfs"....  done

>>> Optimising kernel for current NGWFs:
   Initial electron number for spin 1:      18.05235847
     Final electron number for spin 1:      18.00000000

=================== Penalty functional idempotency correction ==================
 RMS occupancy error at iteration   1:  0.001648 (step -0.4969 Ne1=     18.0000)
 RMS occupancy error at iteration   2:  0.000004 (step -0.5000 Ne1=     18.0000)
            Final RMS occupancy error   :  0.000000 (Ne1=     18.0000)
               Final occupancy bounds   : [  0.0000,  1.0000]
================================================================================

................................................................................
<<<<<<<<<<<<<< LNV (Original version) density kernel optimisation >>>>>>>>>>>>>>
~~~~~~~~~~~~~~~~~~~~~~~~~~~~~~~~~~~~~~~~~~~~~~~~~~~~~~~~~~~~~~~~~~~~~~~~~~~~~~~~
   iter  |      energy (Eh)       | rms gradient |  commutator  |   dE (Eh)
      ideal mu1:      -0.397138613118
             Q0:         -18.942576170916
             G0:      -0.000447018152
   RMS gradient:       0.001174600210
     Trial step:       0.640733126270
             Q1:         -18.942716299431
 Quadratic coef:       0.000146290823
 Linear coef   :      -0.000286419338
           Qmin:         -18.942716364326
Quadratic minimum step length (  0.627238108382) accepted
    Initial Ne1:      18.00000000
      Final Ne1:      18.00000000

=================== Penalty functional idempotency correction ==================
 RMS occupancy error at iteration   1:  0.000015 (step -0.5000 Ne1=     18.0000)
            Final RMS occupancy error   :  0.000000 (Ne1=     18.0000)
               Final occupancy bounds   : [  0.0000,  1.0000]
================================================================================

    1        -1.894257617092E+01     1.1746E-03     1.1746E-03
      ideal mu1:      -0.397343654858
             Q0:         -18.942716368791
             G0:      -0.000026409797
   RMS gradient:       0.000285456316
     Trial step:       0.633949709440
             Q1:         -18.942725437529
 Quadratic coef:       0.000007673746
 Linear coef   :      -0.000016742483
           Qmin:         -18.942725500927
Quadratic minimum step length (  0.691571780045) accepted
    Initial Ne1:      17.99999994
      Final Ne1:      18.00000000

=================== Penalty functional idempotency correction ==================
 RMS occupancy error at iteration   1:  0.000003 (step -0.5000 Ne1=     18.0000)
            Final RMS occupancy error   :  0.000000 (Ne1=     18.0000)
               Final occupancy bounds   : [  0.0000,  1.0000]
================================================================================

    2        -1.894271636879E+01     2.8546E-04     2.8546E-04    -1.4020E-04
      ideal mu1:      -0.397846613479
             Q0:         -18.942725501092
             G0:      -0.000007328507
   RMS gradient:       0.000150395844
     Trial step:       0.662134222810
             Q1:         -18.942727648578
 Quadratic coef:       0.000002704969
 Linear coef   :      -0.000004852455
           Qmin:         -18.942727677302
Quadratic minimum step length (  0.593902610434) accepted
    Initial Ne1:      17.99999998
      Final Ne1:      18.00000000

=================== Penalty functional idempotency correction ==================
 RMS occupancy error at iteration   1:  0.000001 (step -0.5000 Ne1=     18.0000)
            Final RMS occupancy error   :  0.000000 (Ne1=     18.0000)
               Final occupancy bounds   : [  0.0000,  1.0000]
================================================================================

    3        -1.894272550109E+01     1.5040E-04     1.5040E-04    -9.1323E-06
      ideal mu1:      -0.397540859473
             Q0:         -18.942727677329
             G0:      -0.000000517750
   RMS gradient:       0.000039974411
     Trial step:       0.627091096560
             Q1:         -18.942727871677
 Quadratic coef:       0.000000130328
 Linear coef   :      -0.000000324676
           Qmin:         -18.942727879539
Quadratic minimum step length (  0.781111351808) accepted
    Initial Ne1:      18.00000000
      Final Ne1:      18.00000000

=================== Penalty functional idempotency correction ==================
 RMS occupancy error at iteration   1:  0.000000 (step -0.5000 Ne1=     18.0000)
            Final RMS occupancy error   :  0.000000 (Ne1=     18.0000)
               Final occupancy bounds   : [  0.0000,  1.0000]
================================================================================

    4        -1.894272767733E+01     3.9974E-05     3.9974E-05    -2.1762E-06
      ideal mu1:      -0.397565973202
    5        -1.894272787954E+01     1.4993E-05     1.4993E-05    -2.0221E-07
Finished density kernel iterations (   5)

Writing density kernel to file "C2SiH6_NNHO.dkn" ... done


>>> Density kernel optimised for the current NGWF basis:
     ~~~~~~~~~~~~~~~~~~~~~~~~~~~~~~~~~~~~~~~~~~~~~~~~~~~~~~~~~~~
     Total energy                =  -1.89427278795376E+01  Eh
     Estimated bandgap           =   2.4649E-01  Eh
     RMS occupancy error         =   9.9874E-14
     [H,K] commutator            =   1.4993E-05
     Occupancy bounds            = [  0.000:  1.000]
     ~~~~~~~~~~~~~~~~~~~~~~~~~~~~~~~~~~~~~~~~~~~~~~~~~~~~~~~~~~~




################################################################################
########################### NGWF CG iteration  004 #############################
################################################################################
****** Reciprocal space K.E. preconditioning with k_zero =  3.0000 a0^-1 *******
Constructing Nonorthogonal Natural Hybrid Orbitals from current NGWFs....  done

>>> Checking for convergence of NGWFs:   NOT CONVERGED
  ========================================================================
         NGWF RMS gradient =  1.2159E-04 >  2.0000E-06  | above tolerance
  ========================================================================

>>> Improving NGWFs using line search:
============ Calculation of NGWF S^-1 using Hotelling algorithm ================ 
         Iteration  |  Frobenius norm and Maximum abs value    (of I-S*S_n^-1)   
               1       0.12878059E-01     0.27260605E-02
               2       0.56834906E-04     0.14393042E-04
               3       0.13768245E-08     0.34641365E-09
               4       0.39561835E-14     0.15681900E-14
================================================================================
============ Calculation of NGWF S^-1 using Hotelling algorithm ================ 
         Iteration  |  Frobenius norm and Maximum abs value    (of I-S*S_n^-1)   
               1       0.10165138E-01     0.22383219E-02
               2       0.34802594E-04     0.91299891E-05
               3       0.50153953E-09     0.13118687E-09
               4       0.42719281E-14     0.15265567E-14
================================================================================
------------------------------- NGWF line search -------------------------------
RMS gradient                =       0.00012158693691
Trial step length           =               0.871261
Gradient along search dir.  =         -0.00632542706
Functional at step 0        =     -18.94272787953765
Functional at step 1        =     -18.94657827851623
Functional predicted        =     -18.94730007875941
Selected quadratic step     =               1.445657
Conjugate gradients coeff.  =               0.208056
--------------------------- NGWF line search finished --------------------------
                                               
Writing NGWFs to file "C2SiH6_NNHO.tightbox_ngwfs"....  done

>>> Optimising kernel for current NGWFs:
   Initial electron number for spin 1:      18.02139201
     Final electron number for spin 1:      18.00000000

=================== Penalty functional idempotency correction ==================
 RMS occupancy error at iteration   1:  0.000636 (step -0.4989 Ne1=     18.0000)
 RMS occupancy error at iteration   2:  0.000001 (step -0.5000 Ne1=     18.0000)
            Final RMS occupancy error   :  0.000000 (Ne1=     18.0000)
               Final occupancy bounds   : [  0.0000,  1.0000]
================================================================================

................................................................................
<<<<<<<<<<<<<< LNV (Original version) density kernel optimisation >>>>>>>>>>>>>>
~~~~~~~~~~~~~~~~~~~~~~~~~~~~~~~~~~~~~~~~~~~~~~~~~~~~~~~~~~~~~~~~~~~~~~~~~~~~~~~~
   iter  |      energy (Eh)       | rms gradient |  commutator  |   dE (Eh)
      ideal mu1:      -0.394864724309
             Q0:         -18.947304481459
             G0:      -0.000160536158
   RMS gradient:       0.000703904800
     Trial step:       0.699877113600
             Q1:         -18.947349795409
 Quadratic coef:       0.000067041633
 Linear coef   :      -0.000112355583
           Qmin:         -18.947351555853
Quadratic minimum step length (  0.586464691926) accepted
    Initial Ne1:      18.00000000
      Final Ne1:      18.00000000

=================== Penalty functional idempotency correction ==================
 RMS occupancy error at iteration   1:  0.000005 (step -0.5000 Ne1=     18.0000)
            Final RMS occupancy error   :  0.000000 (Ne1=     18.0000)
               Final occupancy bounds   : [  0.0000,  1.0000]
================================================================================

    1        -1.894730448146E+01     7.0390E-04     7.0390E-04
      ideal mu1:      -0.394262529529
             Q0:         -18.947351552956
             G0:      -0.000018459863
   RMS gradient:       0.000238677812
     Trial step:       0.640666228089
             Q1:         -18.947356873446
 Quadratic coef:       0.000006506120
 Linear coef   :      -0.000011826611
           Qmin:         -18.947356927461
Quadratic minimum step length (  0.582290954296) accepted
    Initial Ne1:      18.00000000
      Final Ne1:      18.00000000

=================== Penalty functional idempotency correction ==================
 RMS occupancy error at iteration   1:  0.000001 (step -0.5000 Ne1=     18.0000)
            Final RMS occupancy error   :  0.000000 (Ne1=     18.0000)
               Final occupancy bounds   : [  0.0000,  1.0000]
================================================================================

    2        -1.894735155296E+01     2.3868E-04     2.3868E-04    -4.7071E-05
      ideal mu1:      -0.394759042211
             Q0:         -18.947356927552
             G0:      -0.000003181913
   RMS gradient:       0.000099100580
     Trial step:       0.610781588900
             Q1:         -18.947358159029
 Quadratic coef:       0.000000711977
 Linear coef   :      -0.000001943454
           Qmin:         -18.947358253793
Quadratic minimum step length (  0.833612023185) accepted
    Initial Ne1:      18.00000000
      Final Ne1:      18.00000000

=================== Penalty functional idempotency correction ==================
 RMS occupancy error at iteration   1:  0.000001 (step -0.5000 Ne1=     18.0000)
            Final RMS occupancy error   :  0.000000 (Ne1=     18.0000)
               Final occupancy bounds   : [  0.0000,  1.0000]
================================================================================

    3        -1.894735692755E+01     9.9101E-05     9.9101E-05    -5.3746E-06
      ideal mu1:      -0.394595730094
             Q0:         -18.947358253825
             G0:      -0.000000195931
   RMS gradient:       0.000024590460
     Trial step:       0.713550892402
             Q1:         -18.947358332466
 Quadratic coef:       0.000000061166
 Linear coef   :      -0.000000139807
           Qmin:         -18.947358333715
Quadratic minimum step length (  0.815484733565) accepted
    Initial Ne1:      18.00000000
      Final Ne1:      18.00000000

=================== Penalty functional idempotency correction ==================
 RMS occupancy error at iteration   1:  0.000000 (step -0.5000 Ne1=     18.0000)
            Final RMS occupancy error   :  0.000000 (Ne1=     18.0000)
               Final occupancy bounds   : [  0.0000,  1.0000]
================================================================================

    4        -1.894735825383E+01     2.4590E-05     2.4590E-05    -1.3263E-06
      ideal mu1:      -0.394606181107
    5        -1.894735833372E+01     9.0758E-06     9.0758E-06    -7.9890E-08
Finished density kernel iterations (   5)

Writing density kernel to file "C2SiH6_NNHO.dkn" ... done


>>> Density kernel optimised for the current NGWF basis:
     ~~~~~~~~~~~~~~~~~~~~~~~~~~~~~~~~~~~~~~~~~~~~~~~~~~~~~~~~~~~
     Total energy                =  -1.89473583337152E+01  Eh
     Estimated bandgap           =   2.4049E-01  Eh
     RMS occupancy error         =   1.6464E-14
     [H,K] commutator            =   9.0758E-06
     Occupancy bounds            = [  0.000:  1.000]
     ~~~~~~~~~~~~~~~~~~~~~~~~~~~~~~~~~~~~~~~~~~~~~~~~~~~~~~~~~~~




################################################################################
########################### NGWF CG iteration  005 #############################
################################################################################
****** Reciprocal space K.E. preconditioning with k_zero =  3.0000 a0^-1 *******
Constructing Nonorthogonal Natural Hybrid Orbitals from current NGWFs....  done

>>> Checking for convergence of NGWFs:   NOT CONVERGED
  ========================================================================
         NGWF RMS gradient =  6.3050E-05 >  2.0000E-06  | above tolerance
  ========================================================================

>>> Improving NGWFs using line search:
============ Calculation of NGWF S^-1 using Hotelling algorithm ================ 
         Iteration  |  Frobenius norm and Maximum abs value    (of I-S*S_n^-1)   
               1       0.89448874E-02     0.21179796E-02
               2       0.25531263E-04     0.61719402E-05
               3       0.29125841E-09     0.66803832E-10
               4       0.48013681E-14     0.24424907E-14
================================================================================
============ Calculation of NGWF S^-1 using Hotelling algorithm ================ 
         Iteration  |  Frobenius norm and Maximum abs value    (of I-S*S_n^-1)   
               1       0.19085518E-03     0.47171824E-04
               2       0.11752207E-07     0.29571383E-08
               3       0.32500205E-14     0.13322676E-14
================================================================================
------------------------------- NGWF line search -------------------------------
RMS gradient                =       0.00006305000198
Trial step length           =               1.122295
Gradient along search dir.  =         -0.00168481679
Functional at step 0        =     -18.94735833371517
Functional at step 1        =     -18.94828532469045
Functional predicted        =     -18.94828567744673
Selected quadratic step     =               1.100824
Conjugate gradients coeff.  =               0.000000
--------------------------- NGWF line search finished --------------------------
                                               
Writing NGWFs to file "C2SiH6_NNHO.tightbox_ngwfs"....  done

>>> Optimising kernel for current NGWFs:
   Initial electron number for spin 1:      18.00064722
     Final electron number for spin 1:      18.00000000

=================== Penalty functional idempotency correction ==================
 RMS occupancy error at iteration   1:  0.000123 (step -0.4998 Ne1=     18.0000)
            Final RMS occupancy error   :  0.000000 (Ne1=     18.0000)
               Final occupancy bounds   : [  0.0000,  1.0000]
================================================================================

................................................................................
<<<<<<<<<<<<<< LNV (Original version) density kernel optimisation >>>>>>>>>>>>>>
~~~~~~~~~~~~~~~~~~~~~~~~~~~~~~~~~~~~~~~~~~~~~~~~~~~~~~~~~~~~~~~~~~~~~~~~~~~~~~~~
   iter  |      energy (Eh)       | rms gradient |  commutator  |   dE (Eh)
      ideal mu1:      -0.394551748857
             Q0:         -18.948285619133
             G0:      -0.000003281732
   RMS gradient:       0.000100641955
     Trial step:       0.762817054985
             Q1:         -18.948286627220
 Quadratic coef:       0.000001495275
 Linear coef   :      -0.000002503361
           Qmin:         -18.948286666904
Quadratic minimum step length (  0.638546996448) accepted
    Initial Ne1:      17.99999692
      Final Ne1:      18.00000000

=================== Penalty functional idempotency correction ==================
 RMS occupancy error at iteration   1:  0.000000 (step -0.5000 Ne1=     18.0000)
            Final RMS occupancy error   :  0.000000 (Ne1=     18.0000)
               Final occupancy bounds   : [  0.0000,  1.0000]
================================================================================

    1        -1.894828561913E+01     1.0064E-04     1.0064E-04
      ideal mu1:      -0.394404855172
             Q0:         -18.948286666893
             G0:      -0.000000441418
   RMS gradient:       0.000036910359
     Trial step:       0.697921585352
             Q1:         -18.948286785368
 Quadratic coef:       0.000000189600
 Linear coef   :      -0.000000308075
           Qmin:         -18.948286792038
Quadratic minimum step length (  0.567014596411) accepted
    Initial Ne1:      17.99999963
      Final Ne1:      18.00000000

=================== Penalty functional idempotency correction ==================
 RMS occupancy error at iteration   1:  0.000000 (step -0.5000 Ne1=     18.0000)
            Final RMS occupancy error   :  0.000000 (Ne1=     18.0000)
               Final occupancy bounds   : [  0.0000,  1.0000]
================================================================================

    2        -1.894828666689E+01     3.6910E-05     3.6910E-05    -1.0478E-06
      ideal mu1:      -0.394476348880
             Q0:         -18.948286792039
             G0:      -0.000000064186
   RMS gradient:       0.000014075059
     Trial step:       0.629072115138
             Q1:         -18.948286817148
 Quadratic coef:       0.000000015269
 Linear coef   :      -0.000000040378
           Qmin:         -18.948286818733
Quadratic minimum step length (  0.831774025114) accepted
    Initial Ne1:      17.99999992
      Final Ne1:      18.00000000

=================== Penalty functional idempotency correction ==================
 RMS occupancy error at iteration   1:  0.000000 (step -0.5000 Ne1=     18.0000)
            Final RMS occupancy error   :  0.000000 (Ne1=     18.0000)
               Final occupancy bounds   : [  0.0000,  1.0000]
================================================================================

    3        -1.894828679204E+01     1.4075E-05     1.4075E-05    -1.2515E-07
      ideal mu1:      -0.394461245126
             Q0:         -18.948286818733
             G0:      -0.000000003336
   RMS gradient:       0.000003209000
     Trial step:       0.723357342740
             Q1:         -18.948286820160
 Quadratic coef:       0.000000000986
 Linear coef   :      -0.000000002413
           Qmin:         -18.948286820209
Quadratic minimum step length (  0.885217243542) accepted
    Initial Ne1:      18.00000000
      Final Ne1:      18.00000000

=================== Penalty functional idempotency correction ==================
 RMS occupancy error at iteration   1:  0.000000 (step -0.5000 Ne1=     18.0000)
            Final RMS occupancy error   :  0.000000 (Ne1=     18.0000)
               Final occupancy bounds   : [  0.0000,  1.0000]
================================================================================

    4        -1.894828681873E+01     3.2090E-06     3.2090E-06    -2.6694E-08
      ideal mu1:      -0.394461251441
    5        -1.894828682021E+01     1.1893E-06     1.1893E-06    -1.4777E-09
Finished density kernel iterations (   5)

Writing density kernel to file "C2SiH6_NNHO.dkn" ... done


>>> Density kernel optimised for the current NGWF basis:
     ~~~~~~~~~~~~~~~~~~~~~~~~~~~~~~~~~~~~~~~~~~~~~~~~~~~~~~~~~~~
     Total energy                =  -1.89482868202104E+01  Eh
     Estimated bandgap           =   2.3757E-01  Eh
     RMS occupancy error         =   1.8548E-16
     [H,K] commutator            =   1.1893E-06
     Occupancy bounds            = [  0.000:  1.000]
     ~~~~~~~~~~~~~~~~~~~~~~~~~~~~~~~~~~~~~~~~~~~~~~~~~~~~~~~~~~~


================================================================================
           ---------------- ENERGY COMPONENTS (Eh) ----------------
           | Kinetic                    :       13.20640118906651 |
           | Pseudopotential (local)    :      -84.22847003880275 |
           | Pseudo (non-coul chg cor)  :        0.00000000000000
           | Pseudopotential (non-local):        1.29324419477615 |
           | Hartree                    :       35.72464540792001 |
           | Exchange-correlation       :       -6.80584288234925 |
           | Ewald                      :       21.86173530917893 |
           | Total                      :      -18.94828682021041 |
           --------------------------------------------------------
           ------ LOCAL ENERGY COMPONENTS FROM MATRIX TRACES ------
           | Pseudopotential (local)    :      -84.22847003880200 |
           | Hartree                    :       35.72464540791971 |
           --------------------------------------------------------
           Integrated density           :       17.99999999999998
           Integrated density tr(KS)    :       18.00000000000000
================================================================================




################################################################################
########################### NGWF CG iteration  006 #############################
################################################################################
****** Reciprocal space K.E. preconditioning with k_zero =  3.0000 a0^-1 *******
Constructing Nonorthogonal Natural Hybrid Orbitals from current NGWFs....  done

>>> Checking for convergence of NGWFs:   NOT CONVERGED
  ========================================================================
         NGWF RMS gradient =  3.8977E-05 >  2.0000E-06  | above tolerance
  ========================================================================

>>> Improving NGWFs using line search:
============ Calculation of NGWF S^-1 using Hotelling algorithm ================ 
         Iteration  |  Frobenius norm and Maximum abs value    (of I-S*S_n^-1)   
               1       0.12862299E-01     0.30587201E-02
               2       0.53115573E-04     0.13054445E-04
               3       0.12453267E-08     0.29076909E-09
               4       0.38152656E-14     0.11102230E-14
================================================================================
============ Calculation of NGWF S^-1 using Hotelling algorithm ================ 
         Iteration  |  Frobenius norm and Maximum abs value    (of I-S*S_n^-1)   
               1       0.34876567E-02     0.88252019E-03
               2       0.39438575E-05     0.10225385E-05
               3       0.67588841E-11     0.16624757E-11
               4       0.35894614E-14     0.90205621E-15
================================================================================
------------------------------- NGWF line search -------------------------------
RMS gradient                =       0.00003897677126
Trial step length           =               1.111508
Gradient along search dir.  =         -0.00064464074
Functional at step 0        =     -18.94828682021041
Functional at step 1        =     -18.94871200151970
Functional predicted        =     -18.94872737265083
Selected quadratic step     =               1.366815
Conjugate gradients coeff.  =               0.382157
--------------------------- NGWF line search finished --------------------------
                                               
Writing NGWFs to file "C2SiH6_NNHO.tightbox_ngwfs"....  done

>>> Optimising kernel for current NGWFs:
   Initial electron number for spin 1:      18.00236477
     Final electron number for spin 1:      18.00000000

=================== Penalty functional idempotency correction ==================
 RMS occupancy error at iteration   1:  0.000196 (step -0.4994 Ne1=     18.0000)
 RMS occupancy error at iteration   2:  0.000000 (step -0.5000 Ne1=     18.0000)
            Final RMS occupancy error   :  0.000000 (Ne1=     18.0000)
               Final occupancy bounds   : [  0.0000,  1.0000]
================================================================================

................................................................................
<<<<<<<<<<<<<< LNV (Original version) density kernel optimisation >>>>>>>>>>>>>>
~~~~~~~~~~~~~~~~~~~~~~~~~~~~~~~~~~~~~~~~~~~~~~~~~~~~~~~~~~~~~~~~~~~~~~~~~~~~~~~~
   iter  |      energy (Eh)       | rms gradient |  commutator  |   dE (Eh)
      ideal mu1:      -0.394606679707
             Q0:         -18.948727052560
             G0:      -0.000010913556
   RMS gradient:       0.000183531512
     Trial step:       0.800205219326
             Q1:         -18.948728646722
 Quadratic coef:       0.000007138923
 Linear coef   :      -0.000008733085
           Qmin:         -18.948729723368
Quadratic minimum step length (  0.489447766583) accepted
    Initial Ne1:      18.00000000
      Final Ne1:      18.00000000

=================== Penalty functional idempotency correction ==================
 RMS occupancy error at iteration   1:  0.000000 (step -0.5000 Ne1=     18.0000)
            Final RMS occupancy error   :  0.000000 (Ne1=     18.0000)
               Final occupancy bounds   : [  0.0000,  1.0000]
================================================================================

    1        -1.894872705256E+01     1.8353E-04     1.8353E-04
      ideal mu1:      -0.394227269710
             Q0:         -18.948729723231
             G0:      -0.000001288159
   RMS gradient:       0.000063054226
     Trial step:       0.625826379603
             Q1:         -18.948730185872
 Quadratic coef:       0.000000343522
 Linear coef   :      -0.000000806164
           Qmin:         -18.948730196199
Quadratic minimum step length (  0.734332552726) accepted
    Initial Ne1:      18.00000000
      Final Ne1:      18.00000000

=================== Penalty functional idempotency correction ==================
 RMS occupancy error at iteration   1:  0.000000 (step -0.5000 Ne1=     18.0000)
            Final RMS occupancy error   :  0.000000 (Ne1=     18.0000)
               Final occupancy bounds   : [  0.0000,  1.0000]
================================================================================

    2        -1.894872972323E+01     6.3054E-05     6.3054E-05    -2.6707E-06
      ideal mu1:      -0.394311904002
             Q0:         -18.948730196196
             G0:      -0.000000126959
   RMS gradient:       0.000019795438
     Trial step:       0.677912002326
             Q1:         -18.948730249508
 Quadratic coef:       0.000000032755
 Linear coef   :      -0.000000086067
           Qmin:         -18.948730252734
Quadratic minimum step length (  0.890640376405) accepted
    Initial Ne1:      18.00000000
      Final Ne1:      18.00000000

=================== Penalty functional idempotency correction ==================
 RMS occupancy error at iteration   1:  0.000000 (step -0.5000 Ne1=     18.0000)
            Final RMS occupancy error   :  0.000000 (Ne1=     18.0000)
               Final occupancy bounds   : [  0.0000,  1.0000]
================================================================================

    3        -1.894873019620E+01     1.9795E-05     1.9795E-05    -4.7297E-07
      ideal mu1:      -0.394300740462
             Q0:         -18.948730252733
             G0:      -0.000000006471
   RMS gradient:       0.000004469177
     Trial step:       0.777030115839
             Q1:         -18.948730255608
 Quadratic coef:       0.000000002154
 Linear coef   :      -0.000000005028
           Qmin:         -18.948730255668
Quadratic minimum step length (  0.906869429732) accepted
    Initial Ne1:      18.00000000
      Final Ne1:      18.00000000

=================== Penalty functional idempotency correction ==================
 RMS occupancy error at iteration   1:  0.000000 (step -0.5000 Ne1=     18.0000)
            Final RMS occupancy error   :  0.000000 (Ne1=     18.0000)
               Final occupancy bounds   : [  0.0000,  1.0000]
================================================================================

[...]
             Q0:         -18.948967507629
             G0:      -0.000000006403
   RMS gradient:       0.000004445441
     Trial step:       0.629755668550
             Q1:         -18.948967509714
 Quadratic coef:       0.000000001947
 Linear coef   :      -0.000000004032
           Qmin:         -18.948967509717
Quadratic minimum step length (  0.652048241877) accepted
    Initial Ne1:      18.00000000
      Final Ne1:      18.00000000

=================== Penalty functional idempotency correction ==================
 RMS occupancy error at iteration   1:  0.000000 (step -0.5000 Ne1=     18.0000)
            Final RMS occupancy error   :  0.000000 (Ne1=     18.0000)
               Final occupancy bounds   : [  0.0000,  1.0000]
================================================================================

    2        -1.894896750763E+01     4.4454E-06     4.4454E-06    -1.5881E-08
      ideal mu1:      -0.394029128769
             Q0:         -18.948967509717
             G0:      -0.000000000302
   RMS gradient:       0.000000964769
     Trial step:       0.640805022210
             Q1:         -18.948967509828
 Quadratic coef:       0.000000000083
 Linear coef   :      -0.000000000193
           Qmin:         -18.948967509830
Quadratic minimum step length (  0.747480302454) accepted
    Initial Ne1:      18.00000000
      Final Ne1:      18.00000000

=================== Penalty functional idempotency correction ==================
 RMS occupancy error at iteration   1:  0.000000 (step -0.5000 Ne1=     18.0000)
            Final RMS occupancy error   :  0.000000 (Ne1=     18.0000)
               Final occupancy bounds   : [  0.0000,  1.0000]
================================================================================

    3        -1.894896750972E+01     9.6477E-07     9.6477E-07    -2.0885E-09
      ideal mu1:      -0.394028597111
             Q0:         -18.948967509831
             G0:      -0.000000000020
   RMS gradient:       0.000000243863
     Trial step:       0.692090407256
             Q1:         -18.948967509839
 Quadratic coef:       0.000000000006
 Linear coef   :      -0.000000000014
           Qmin:         -18.948967509839
Quadratic minimum step length (  0.830910963773) accepted
    Initial Ne1:      18.00000000
      Final Ne1:      18.00000000

=================== Penalty functional idempotency correction ==================
 RMS occupancy error at iteration   1:  0.000000 (step -0.5000 Ne1=     18.0000)
            Final RMS occupancy error   :  0.000000 (Ne1=     18.0000)
               Final occupancy bounds   : [  0.0000,  1.0000]
================================================================================

    4        -1.894896750983E+01     2.4386E-07     2.4386E-07    -1.1370E-10
      ideal mu1:      -0.394028673081
    5        -1.894896750984E+01     6.3436E-08     6.3436E-08    -8.5656E-12
Finished density kernel iterations (   5)

Writing density kernel to file "C2SiH6_NNHO.dkn" ... done


>>> Density kernel optimised for the current NGWF basis:
     ~~~~~~~~~~~~~~~~~~~~~~~~~~~~~~~~~~~~~~~~~~~~~~~~~~~~~~~~~~~
     Total energy                =  -1.89489675098398E+01  Eh
     Estimated bandgap           =   2.2544E-01  Eh
     RMS occupancy error         =   1.3354E-16
     [H,K] commutator            =   6.3436E-08
     Occupancy bounds            = [  0.000:  1.000]
     ~~~~~~~~~~~~~~~~~~~~~~~~~~~~~~~~~~~~~~~~~~~~~~~~~~~~~~~~~~~




################################################################################
########################### NGWF CG iteration  012 #############################
################################################################################
****** Reciprocal space K.E. preconditioning with k_zero =  3.0000 a0^-1 *******
Constructing Nonorthogonal Natural Hybrid Orbitals from current NGWFs....  done

>>> Checking for convergence of NGWFs: 
           ........................................................
           |         *** NGWF optimisation converged ***          |
           | RMS NGWF gradient =    0.00000097848652              |
           | Criteria satisfied:                                  |
           | -> RMS NGWF gradient lower than set threshold.       |
           ========================================================

================================================================================
           ---------------- ENERGY COMPONENTS (Eh) ----------------
           | Kinetic                    :       13.20682544839386 |
           | Pseudopotential (local)    :      -84.23358675201030 |
           | Pseudo (non-coul chg cor)  :        0.00000000000000
           | Pseudopotential (non-local):        1.29011124232380 |
           | Hartree                    :       35.73374031635616 |
           | Exchange-correlation       :       -6.80779307408221 |
           | Ewald                      :       21.86173530917893 |
           | Total                      :      -18.94896750983976 |
           --------------------------------------------------------
           ------ LOCAL ENERGY COMPONENTS FROM MATRIX TRACES ------
           | Pseudopotential (local)    :      -84.23358675201047 |
           | Hartree                    :       35.73374031635623 |
           --------------------------------------------------------
           Integrated density           :       18.00000000000005
           Integrated density tr(KS)    :       18.00000000000000
================================================================================

Writing NNHO plot files in formats: CUBE ...  done

                        <<<<< CALCULATION SUMMARY >>>>>                         
|ITER|    RMS GRADIENT   |     TOTAL ENERGY    |   step   |     Epredicted              
   0     0.00092971345559    -18.58843398573671   1.533224    -18.86927219545248        
   1     0.00049742689916    -18.87111126602692   1.019505    -18.92464575925574        
   2     0.00026656139756    -18.92514189103753   1.142061    -18.94255760647872        
   3     0.00012158693691    -18.94272787953765   1.445657    -18.94730007875941        
   4     0.00006305000198    -18.94735833371517   1.100824    -18.94828567744673        
   5     0.00003897677126    -18.94828682021041   1.366815    -18.94872737265083        
   6     0.00002649048405    -18.94873025566773   1.166344    -18.94890479240197        
   7     0.00001397435835    -18.94890683028028   1.229061    -18.94895828125126        
   8     0.00000597628112    -18.94895914122279   0.882905    -18.94896582356462        
   9     0.00000306545955    -18.94896593041441   0.632571    -18.94896719007279        
  10     0.00000349677472    -18.94896723291813   0.107954    -18.94896750309706        
  11     0.00000097848652    -18.94896750983975  <-- CG                                 

======================== Writing density and potential =========================
Writing "C2SiH6_NNHO_density.cube" ... done
Writing "C2SiH6_NNHO_potential.cube" ... done
Writing "C2SiH6_NNHO_electrostatic_potential.cube" ... done
================================================================================

    Mulliken Atomic Populations
    ---------------------------
Species  Ion    Total   Charge (e)
==================================
  H      1       0.726      0.274
  C      2       4.853     -0.853
  C      3       4.853     -0.853
  H      4       0.725      0.275
  Si     5       3.110      0.890
  H      6       1.141     -0.141
  H      7       0.726      0.274
  H      8       0.725      0.275
  H      9       1.141     -0.141
==================================

        Bond         Population      Length (bohr)
==================================================
 C     2 -- H     7        0.81      2.06743
 H     1 -- C     2        0.81      2.06743
 C     3 -- H     8        0.81      2.06757
 C     3 -- H     4        0.81      2.06757
 Si    5 -- H     6        0.82      2.80418
 Si    5 -- H     9        0.82      2.80418
 C     2 -- C     3        0.61      2.93258
 H     4 -- H     8       -0.08      3.43423
 H     1 -- H     7       -0.08      3.43619
 C     2 -- Si    5        0.43      3.52179
 C     3 -- Si    5        0.43      3.52235
 C     3 -- H     7       -0.09      4.27446
 H     1 -- C     3       -0.09      4.27446
 C     2 -- H     8       -0.09      4.27548
 C     2 -- H     4       -0.09      4.27548
 H     6 -- H     9       -0.07      4.72597
 H     4 -- H     7       -0.04      4.77424
 H     1 -- H     8       -0.04      4.77424
 Si    5 -- H     7       -0.04      4.87772
 H     1 -- Si    5       -0.04      4.87772
 Si    5 -- H     8       -0.04      4.87952
 H     4 -- Si    5       -0.04      4.87952
 C     2 -- H     9       -0.04      5.46726
 C     2 -- H     6       -0.04      5.46726
 C     3 -- H     6       -0.04      5.47592
 C     3 -- H     9       -0.04      5.47592
==================================================


************************ NGWF s/p/d/f Character Analysis *********** (n=18) ****
|        Atom   NGWF    :         %s       %p       %d       %f     spilling   |
|   H       1      1    :     99.358    0.153    0.352    0.137     0.19E-02   |
|   C       2      1    :     22.918   76.652    0.231    0.199     0.49E-02   |
|                  2    :     29.712   69.200    0.518    0.571     0.71E-02   |
|                  3    :     29.713   69.199    0.517    0.571     0.71E-02   |
|                  4    :     16.814   82.495    0.412    0.279     0.35E-02   |
|   C       3      1    :     22.972   76.597    0.231    0.200     0.49E-02   |
|                  2    :     29.701   69.211    0.517    0.571     0.71E-02   |
|                  3    :     16.788   82.521    0.412    0.279     0.35E-02   |
|                  4    :     29.697   69.215    0.518    0.571     0.71E-02   |
|   H       4      1    :     99.358    0.153    0.352    0.137     0.19E-02   |
|   Si      5      1    :     17.870   81.921    0.058    0.152     0.41E-02   |
|                  2    :     18.202   81.589    0.058    0.151     0.41E-02   |
|                  3    :     31.818   67.473    0.387    0.321     0.67E-02   |
|                  4    :     31.813   67.479    0.388    0.321     0.67E-02   |
|   H       6      1    :     98.817    0.739    0.323    0.121     0.18E-02   |
|   H       7      1    :     99.358    0.153    0.352    0.137     0.19E-02   |
|   H       8      1    :     99.358    0.153    0.352    0.137     0.19E-02   |
|   H       9      1    :     98.817    0.739    0.323    0.122     0.18E-02   |
********************************************************************************


=================== Orbital energy and occupancy information ===================

      Total number of orbitals:      18
   Number of occupied orbitals:       9.000000000
   Occupancy sum (eigenvalues):       9.000000000
                 HOMO-LUMO gap:       0.225441335 Eh
                 Mid-gap level:      -0.096354350 Eh

                        Orbital | Energy (Eh) | Occupancy
                            1    -0.695208330   1.0000000
                            2    -0.524413664   1.0000000
                            3    -0.456380829   1.0000000
                            4    -0.406065573   1.0000000
                            5    -0.376343041   1.0000000
                            6    -0.314236918   1.0000000
                            7    -0.304094945   1.0000000
                            8    -0.260439742   1.0000000
                            9    -0.209075017   1.0000000
                        .......   --- gap ---   .........
                           10     0.016366317   0.0000000
                           11     0.043793102   0.0000000
                           12     0.053132727   0.0000000
                           13     0.084619043   0.0000000
                           14     0.152147288   0.0000000
                           15     0.153846429   0.0000000
                           16     0.182825118   0.0000000
                           17     0.229740155   0.0000000
                           18     0.241526583   0.0000000

================================================================================

===================== Writing canonical molecular orbitals =====================
| Orbital  Energy (eV)  Norm     |
| HOMO-5  -11.04960648  1.000000 | Writing "C2SiH6_NNHO_HOMO-5.cube" ... done
| HOMO-4  -10.24081523  1.000000 | Writing "C2SiH6_NNHO_HOMO-4.cube" ... done
| HOMO-3   -8.55082163  1.000000 | Writing "C2SiH6_NNHO_HOMO-3.cube" ... done
| HOMO-2   -8.27484449  1.000000 | Writing "C2SiH6_NNHO_HOMO-2.cube" ... done
| HOMO-1   -7.08692599  1.000000 | Writing "C2SiH6_NNHO_HOMO-1.cube" ... done
| HOMO     -5.68922070  1.000000 | Writing "C2SiH6_NNHO_HOMO.cube" ... done
| LUMO      0.44535016  1.000000 | Writing "C2SiH6_NNHO_LUMO.cube" ... done
| LUMO+1    1.19167096  1.000000 | Writing "C2SiH6_NNHO_LUMO+1.cube" ... done
| LUMO+2    1.44581507  1.000000 | Writing "C2SiH6_NNHO_LUMO+2.cube" ... done
| LUMO+3    2.30260131  1.000000 | Writing "C2SiH6_NNHO_LUMO+3.cube" ... done
| LUMO+4    4.14013836  1.000000 | Writing "C2SiH6_NNHO_LUMO+4.cube" ... done
| LUMO+5    4.18637435  1.000000 | Writing "C2SiH6_NNHO_LUMO+5.cube" ... done
================================================================================
 
===================== Density of States (DOS) calculation ======================
Writing "C2SiH6_NNHO_DOS.txt" ...  done
================================================================================
 
Writing bands to file "C2SiH6_NNHO.val_bands" ... done

------------------------------ TIMING INFORMATION ------------------------------
AVERAGE TIME:     173.318s on      5 proc(s)                                    
TOTAL TIME:       173.318s on      5 proc(s)                                    
================= AVERAGE TIMINGS FROM ALL PROCS (CUMULATIVE) ==================
|| TAG                                    #calls    cpu time   %total  Gflops ||
|| sparse_spam3toblacs_real_fast_B2     :    15        0.00s   0.000%  ------ ||
|| sparse_spam3toblacs_real_fast_imbal  :     3        0.00s   0.000%  ------ ||
|| linalg_invert_sym_matrix             :    12        0.00s   0.000%  ------ || (3 procs only)
|| onetep.F90 main loop imbalance       :     1        0.00s   0.000%  ------ ||
|| sparse_spam3toblacs_real_fast_B1     :    15        0.00s   0.000%  ------ ||
|| sparse_spam3toblacs_real_fast        :     3        0.00s   0.000%  ------ ||
|| onetep.F90 final imbalance           :     1        0.00s   0.000%  ------ ||
|| ewald_calculate_energy               :     1        0.00s   0.000%  ------ ||
|| linalg_dsygv_lt_2                    :    76        0.00s   0.001%  ------ || (3 procs only)
|| dense_eigensolve                     :     1        0.00s   0.001%  ------ ||
|| restart_kernel_write                 :    13        0.00s   0.003%  ------ ||
|| pseudo_make_structure_factor         :     1        0.01s   0.006%  ------ ||
|| function_ops_sum_ppd_funcs           :     1        0.02s   0.013%  ------ ||
|| ngwfs_orthogonalise                  :     1        0.02s   0.014%  ------ ||
|| pseudopotentials_local_on_grid       :     1        0.02s   0.014%  ------ ||
|| ngwfs_initialise_from_radial         :     1        0.07s   0.039%  ------ ||
|| palser_mano_kernel_optimise          :     1        0.08s   0.044%  ------ ||
|| sparse_init                          :     1        0.11s   0.064%  ------ ||
|| nho_generate                         :    12        0.14s   0.082%  ------ ||
|| density_init_guess_real              :     1        0.18s   0.102%  ------ ||
|| basis_extract_function_from_box      :  1123        0.20s   0.117%  ------ ||
|| sparse_set_to_garbage                :   154        0.22s   0.124%  ------ ||
|| restart_ngwfs_tightbox_output        :    11        0.25s   0.145%  ------ ||
|| basis_copy_function_to_box           :   871        0.30s   0.171%  ------ ||
|| energy_and_force_init_cell           :     1        0.30s   0.176%  ------ ||
|| basis_dot_function_with_box          :  6523        0.33s   0.190%  ------ ||
|| fourier_apply_box_pair               :   129        0.38s   0.220%  38.169 ||
|| pseudopotentials_nonlocal_mat        :    24        0.40s   0.230%  ------ ||
|| basis_add_function_to_box            : 11275        0.51s   0.294%  ------ ||
|| sparse_embed_hotelling_invert_embed  :    24        0.67s   0.388%  ------ ||
|| cell_grid_extract_box_real           :   335        0.71s   0.410%  ------ ||
|| function_ops_brappd_ketppd_spam3     :    24        1.15s   0.666%  ------ ||
|| cell_grid_deposit_box_real           :   556        1.62s   0.932%  ------ ||
|| eigenstates_calculate                :     1        1.62s   0.934%  ------ ||
|| integrals_kinetic_spam3              :    24        1.69s   0.976%  ------ ||
|| projectors_init_fftbox_recip         :    48        2.01s   1.158%  ------ ||
|| ngwf_gradient_coeffs                 :    12        2.13s   1.231%  ------ ||
|| density_fftbox_deposit_to_cell       :   504        2.15s   1.238%  ------ ||
|| projectors_gradient_batch            :    12        2.74s   1.579%  ------ ||
|| hartree_on_grid_single               :   126        2.80s   1.615%  ------ ||
|| hamiltonian_energy_components        :     3        3.68s   2.120%  ------ ||
|| projectors_func_ovlp_box_spam3       :    36        4.31s   2.488%  ------ ||
|| density_batch_row_sums               :   126        4.60s   2.654%  ------ ||
|| lnv_gradient_norm                    :    60        4.65s   2.680%  ------ ||
|| kernel_purify                        :   193        4.78s   2.758%  ------ ||
|| kernel_fix                           :    60        5.25s   3.027%  ------ ||
|| integrals_locpot_mat_els_batch       :    68        6.09s   3.514%  ------ ||
|| fourier_apply_cell_backward          :   627        6.87s   3.963%   9.657 ||
|| sparse_trace                         :  1838        6.98s   4.027%  ------ ||
|| fourier_apply_cell_forward           :   626        7.05s   4.065%   9.400 ||
|| ngwf_gradient_build_batch            :    12        8.99s   5.185%  ------ ||
|| sparse_product                       :  2850       11.11s   6.413%  ------ ||
|| sw_init                              :     1       11.45s   6.607%  ------ ||
|| ngwf_gradient_batch                  :    12       12.94s   7.468%  ------ ||
|| xc_energy_potential                  :   125       14.72s   8.494%  ------ ||
|| ngwf_gradient_lnv                    :    12       15.90s   9.171%  ------ ||
|| density_fftbox_interpolate_multiply  :   504       16.00s   9.230%  ------ ||
|| sw_recp_generate                     :  1036       17.32s   9.996%  ------ ||
|| potential_apply_to_ngwf_batch        :    68       17.85s  10.300%  ------ ||
|| fourier_apply_box                    :  2851       23.00s  13.272%  45.785 ||
|| integrals_locpot_dbl_grid            :    68       24.75s  14.282%  ------ ||
|| density_batch_interp_deposit         :   126       26.25s  15.148%  ------ ||
|| properties_ngwfs_char                :     1       31.92s  18.417%  ------ ||
|| density_on_dbl_grid                  :   126       32.27s  18.616%  ------ ||
|| properties_calculate                 :     1       38.36s  22.134%  ------ ||
|| hamiltonian_lhxc_calculate           :   121       53.14s  30.662%  ------ ||
|| lnv_denskernel_optimise_cg           :    12       92.54s  53.391%  ------ ||
|| ngwf_cg_optimise                     :     1      133.10s  76.794%  ------ ||
|| energy_and_forces                    :     1      172.66s  99.622%  ------ ||
|| total_time                           :     1      173.32s 100.000%  ------ ||
================================================================================
Overhead of generating timer report: 
- 0 ms averaging over threads,
- 0 ms ensuring consistency across MPI ranks,
- 0 ms printing in order.

Job completed: 11-07-2023 08:34 (+0100)
