==================================================================================
It's Tue 11 Jul 15:40:55 CEST 2023.
*** Starting onetep_launcher (node node0505, PIDs 32104 32105 32106 32107 32108 32109 32110 32111 32112 32113 32114 32115 32116 32117 32118 32119 32120 32121)...
    - ONETEP arguments: C70_in_10-8.dat
    - Current directory: /beegfs/home/d/dziedzij/comp/tutorial_5
    - Launcher executable directory: /beegfs/home/d/dziedzij/ONETEP_jd/utils
    - (-e) ONETEP executable specified through command-line: /beegfs/home/d/dziedzij/ONETEP_jd/bin/onetep.hsuper.intel22.omp.scalapack
      ... trying /beegfs/home/d/dziedzij/ONETEP_jd/bin/onetep.hsuper.intel22.omp.scalapack
          -> looks OK
*** Setting up environment...
    - (-s) Process stack size: unlimited
    - (-t) OMP_NUM_THREADS: 4
    - (-o) OMP_STACKSIZE: 64M
    - (-c) Maximum core file size: 0
    - (-d) decfort_dump_flag: n
    - (-m) I_MPI_OFA_TRANSLATION_CACHE: 0
    - (-m) I_MPI_DAPL_TRANSLATION_CACHE: 0
    - (-m) I_MPI_DAPL_UD_TRANSLATION_CACHE: 0
*** Starting ONETEP...
    - /beegfs/home/d/dziedzij/ONETEP_jd/bin/onetep.hsuper.intel22.omp.scalapack C70_in_10-8.dat
=================================================================================
_________________________________________________________________________________
[0] MPI startup(): I_MPI_DAPL_UD_TRANSLATION_CACHE variable has been removed from the product, its value is ignored

[0] MPI startup(): I_MPI_OFA_TRANSLATION_CACHE variable has been removed from the product, its value is ignored

[0] MPI startup(): I_MPI_DAPL_TRANSLATION_CACHE variable has been removed from the product, its value is ignored

 +---------------------------------------------------------------+
 |                                                               |
 |        ####### #     # ####### ####### ####### ######         |
 |        #     # ##    # #          #    #       #     #        |
 |        #     # # #   # #          #    #       #     #        |
 |        #     # #  #  # #####      #    #####   ######         |
 |        #     # #   # # #          #    #       #              |
 |        #     # #    ## #          #    #       #              |
 |        ####### #     # #######    #    ####### #              |
 |                                                               |
 |        Linear-Scaling Ab Initio Total Energy Program          |
 |                                                               |
 |          Release for academic collaborators of ODG            |
 |                                             Version 6.1.45    |
 | Remote: soton:ONETEP_jd_github                                |
 | Local branch: master                                          |
 | Commit ID: 418670589d23ac87d7a12132f116888dc53caea6           |
 | Date: Tue Jul 11 07:26:22 2023 +0200                          |
 |                                                               |
 +---------------------------------------------------------------+
 |                                                               |
 |  Authors:                                                     |
 |  Jacek Dziedzic, Peter D. Haynes, Nicholas D. M. Hine,        |
 |  Arash A. Mostofi, Mike C. Payne and Chris-Kriton Skylaris    |
 |                                                               |
 |  Contributors:                                                |
 |  J. Aarons, L. Andrinopoulos, P. W. Avraam, R. A. Bell,       |
 |  A. Bhandari, G. A. Bramley, R. J. Charlton, S. J. Clark,     |
 |  R. J. Clements, G. C. Constantinescu, F. Corsetti,           |
 |  N. Corsini, O. Dieguez, S. M. M. Dubois, K. K. B. Duff,      |
 |  J. M. Escartin, M. Escobar Azor, A. Greco,                   |
 |  H. Helal, Q. O. Hill, L. P. Lee, J.-H. Li,                   |
 |  E. B. Linscott, G. Moynihan, D. D. O`Regan,                  |
 |  O. K. Okan, M. J. S. Phipps, C. J. Pickard,                  |
 |  J. C. A. Prentice, M. I. J. Probert, L. E. Ratcliff,         |
 |  M. Robinson, A. Ruiz Serrano, M. dos Santos Dias,            |
 |  J. S. Spencer, E. W. Tait, G. Teobaldi, D. Turban,           |
 |  V. Vitale, K. A. Wilkinson, C. Weber, J. C. Womack,          |
 |  N. Yeung and T. J. Zuehlsdorff                               |
 |                                                               |
 |                                   Copyright (c) 2004-2023     |
 |                                                               |
 |  Please cite:                                                 |
 |  "The ONETEP linear-scaling density functional theory program"|
 |   J. Chem. Phys. 152(17) 174111 (2020)                        |
 |                                                               |
 |          in all publications arising from your use of ONETEP. |
 |                                                               |
 +---------------------------------------------------------------+
 |                                                               |
 |   ONETEP is based on developments described in the following  |
 |   publications:                                               |
 |                                                               |
 |  "Nonorthogonal generalized Wannier function pseudopotential  |
 |   plane-wave method".                                         |
 |   C.-K. Skylaris, A. A. Mostofi, P. D. Haynes, O. Dieguez,    |
 |   M. C. Payne.                                                |
 |   Phys. Rev. B 66 035119 (2002).                              |
 |                                                               |
 |  "Preconditioned iterative minimization for linear-scaling    |
 |   electronic structure calculations".                         |
 |   A. A. Mostofi, P. D. Haynes, C.-K. Skylaris, M. C. Payne.   |
 |   J. Chem. Phys. 119(17), pp.8842-8848 (2003).                |
 |                                                               |
 |  "Total-energy calculations on a real space grid with         |
 |   localized functions and a plane-wave basis".                |
 |   A. A. Mostofi, C.-K. Skylaris, P. D. Haynes, M. C. Payne.   |
 |   Comput. Phys. Commun. 147, pp.788-802 (2002).               |
 |                                                               |
 |  "Accurate kinetic energy evaluation in electronic structure  |
 |   calculations with localized functions on real space grids"  |
 |   C.-K. Skylaris, A. A. Mostofi, P. D. Haynes, C. J. Pickard, |
 |   M. C. Payne.                                                |
 |   Comput. Phys. Commun. 140, pp.315-322 (2001).               |
 |                                                               |
 |  "Accurate ionic forces and geometry optimization in linear-  |
 |   scaling density-functional theory with local orbitals"      |
 |   N. D. M. Hine, M. Robinson, P. D. Haynes, C.-K. Skylaris,   |
 |   M. C. Payne, and A. A. Mostofi.                             |
 |   Phys. Rev. B 83 195102 (2011).                              |
 |                                                               |
 +---------------------------------------------------------------+

Job started: 11-07-2023 15:40 (+0200)
 
Reading parameters from file "C70_in_10-8.dat" ...... done

If your calculation crashes here, before "Checking processes and threads..."
is displayed, then your stack size is insufficient.
If so, use "ulimit -s unlimited" at runtime.
You can disable this check with "check_stack_size F".

Checking processes and threads...
   Determining the default number of threads...
      No default threads set at compilation time: defaulting to 1.
      OpenMP library call suggests 4 threads.
      Hybrid MPI-OpenMP compilation detected.
      Number of MPI processes > 1.
      OMP_NUM_THREADS environment variable present and
      its value matches the one obtained from the OpenMP library call.
      Using this value as default.
      Default threads: 4
      Default applies to threads_max and threads_num_fftboxes.
      Settings in the input file override this default.
   ... done

   Running with 90 MPI processes.
   There are 18 MPI processes running on the same node as the root process.
   Each MPI process is using: 
               1 threads for simulation cell FFTs.
               1 threads for parallel FFT box operations.
               4 threads for loops over batched FFT box operations.
               4 threads in other parallel regions.
   MPI Interface: S1 (use mpi_f08) (-DMPI -DUSE_MPI_F08).
   MPI_ASYNC_PROTECTS_NONBLOCKING: Yes. MPI_SUBARRAYS_SUPPORTED: Yes.
... done

Basic input checks...... done

Reading geometry and species blocks from file "C70_in_10-8.dat" ...
  <species_atomic_set> block not found: NGWF initialisation set to SOLVE
    
  Number of PPD points along a3 set to 1.  This is 
  the default value, it may have been provided also in the input file.
... done


--------------------------------------------------------------------------------
---------------------------------- INPUT FILE ----------------------------------
--------------------------------------------------------------------------------

TASK SINGLEPOINT                                                                
CUTOFF_ENERGY 800.0  eV                                                         
KERNEL_CUTOFF 30.0 bohr                                                         
NGWF_THRESHOLD_ORIG 0.00003                                                     
XC_FUNCTIONAL PBE                                                               
DO_PROPERTIES T                                                                 
OUTPUT_DETAIL VERBOSE                                                           
%block lattice_cart                                                             
37.794526259999998      0.000000000000000       0.000000000000000               
0.000000000000000       37.794526259999998      0.000000000000000               
0.000000000000000       0.000000000000000       62.874338218793845              
%endblock lattice_cart                                                          
%block positions_abs                                                            
     Hash =   000007272989712379261527
%endblock positions_abs                                                         
%block species                                                                  
C C 6 4 8.0                                                                     
%endblock species                                                               
%block species_pot                                                              
C C_01.recpot                                                                   
%endblock species_pot                                                           

--------------------------------------------------------------------------------
-------------------------------- END INPUT FILE --------------------------------
--------------------------------------------------------------------------------


 
<<<<<<<<<<<<<<<<<<<<<<<<<<<<<<<<< Full system >>>>>>>>>>>>>>>>>>>>>>>>>>>>>>>>>>
<<<<<<<<<<<<<<<<<<<<<<<<< Pseudopotential information >>>>>>>>>>>>>>>>>>>>>>>>>>
File: C_01.recpot [ 2001 points up to Gmax=  52.9 (1/bohr)]
  Atomic number:  6;  ionic charge:  4.000000
    Shell 1: l = 0; rc = 1.48 bohr
<<<<<<<<<<<<<<<<<<<<<<<<<<<<<<<<<<<<<<<<>>>>>>>>>>>>>>>>>>>>>>>>>>>>>>>>>>>>>>>>

-------------------------- Atom counting information ---------------------------
Symbol    Natoms    Nngwfs    Nprojs
  C        558      2232       558
.......   ......    ......    ......
Totals:    558      2232       558
--------------------------------------------------------------------------------

=============================== PSINC grid sizes ===============================
                      Simulation cell:   75 x  75 x 125
                              FFT-box:   75 x  75 x  99
                                  PPD:    5 x   5 x   1
Grid space d1=  0.503927016800a0 (KE cutoff=  29.91360Eh = 813.99054eV)
Grid space d2=  0.503927016800a0 (KE cutoff=  29.91360Eh = 813.99054eV)
Grid space d3=  0.502994705750a0 (KE cutoff=  30.02460Eh = 817.01083eV)
================================================================================
  
WARNING in cell_grid_distribute:
Average of less than one 23-slab per proc, so workload cannot be
equally balanced between procs.

********************* Fourier parallelisation information **********************
       Coarse grid (whole simulation cell) dimensions:     75    75   125
          Real-space ('12') slabs/proc (min max mean):      1     2     1
         Recip-space ('23') slabs/proc (min max mean):      0     1     0
********************************************************************************
  
WARNING in cell_grid_distribute:
Average of less than one 23-slab per proc, so workload cannot be
equally balanced between procs.

********************* Fourier parallelisation information **********************
       Double grid (whole simulation cell) dimensions:    150   150   250
          Real-space ('12') slabs/proc (min max mean):      2     3     2
         Recip-space ('23') slabs/proc (min max mean):      0     1     0
********************************************************************************

Atom SCF Calculation for C  : Z (AE atom) =   6 : Z (PS atom) =   4
Config String:
Orbitals (num,occ):  2     2.00 2.00
Orbitals   (num,l):  2        0    1
Real-space Grid (nr,dr,rmax): 1203    0.0066555740    8.0000000000
Spherical Bessel Basis (nsws,lmax,cutoff):   47    1  176.3967570603
Confining potential (l,width,scale):  0    3.0000000000  100.0000000000
Confining potential (l,width,scale):  1    3.0000000000  100.0000000000
  1         -5.2976922011   -1.3069684169    4.5135249990   -1.4493313817
  2         -5.3721716256   -1.3429755895    4.4750154450   -1.4361613026
  3         -5.3809959565   -1.3617365618    4.4541655428   -1.4305930207
  4         -5.3918938866   -1.3667928461    4.4484735100   -1.4294652294
  5         -5.3956096428   -1.3688539142    4.4461376126   -1.4290734646
  6         -5.3968271862   -1.3696852393    4.4451910874   -1.4289366866
  7         -5.3972028401   -1.3700178062    4.4448112275   -1.4288900460
  8         -5.3973067903   -1.3701500158    4.4446598370   -1.4288749220
  9         -5.3973286940   -1.3702023868    4.4445997329   -1.4288704293
 10         -5.3973289850   -1.3702230869    4.4445759233   -1.4288693188
 11         -5.3973254264   -1.3702312560    4.4445665049   -1.4288691775
 12         -5.3973224003   -1.3702344755    4.4445627836   -1.4288692549
 13         -5.3973208708   -1.3702354890    4.4445616088   -1.4288693270
 14         -5.3973198783   -1.3702360102    4.4445610034   -1.4288693814
 15         -5.3973192535   -1.3702362780    4.4445606917   -1.4288694190
 16         -5.3973188684   -1.3702364155    4.4445605313   -1.4288694437
 17         -5.3973186349   -1.3702364860    4.4445604489   -1.4288694595
 18         -5.3973184951   -1.3702365221    4.4445604065   -1.4288694693
 19         -5.3973184122   -1.3702365405    4.4445603848   -1.4288694753
Atom SCF converged after  19 iterations to a total energy of     -5.39731841

BC: Task: SINGLEPOINT
BC: +++++++++++++++ Summary of boundary conditions ++++++++++++++
BC: |       Component       |     Keyword     |   Periodicity   |
BC: |                       |                 |     X  Y  Z [1] |
BC: |-----------------------------------------------------------|
BC: | Ion-ion               | ion_ion_bc [2]  |     P  P  P     |
BC: | Local pseudopotential | pspot_bc [3]    |     P  P  P     |
BC: +++++++++++++++++++++++++++++++++++++++++++++++++++++++++++++
BC: P: Periodic, O: Open.
BC: [1] Not strictly along X, Y, Z but rather along lattice vectors A1, A2, A3.
BC: [2] Also affected by: pbc_correction_cutoff, cutoff_coulomb_type,
BC:     is_smeared_ion_rep, is_implicit_solvent, openbc_ion_ion.
BC: [3] Also affected by: is_smeared_ion_rep, is_implicit_solvent, openbc_pspot.

Determining parallel strategy ...
... using space-filling curve
... NGWF load balancing: max     28;  min     24;  average     25
... Projector load balancing: max      7;  min      6;  average      6
... done
Calculating Ewald energy ...
              Ewald: real-space energy =        11542.014431
        Ewald: reciprocal-space energy =         4823.867763
         Ewald: (sum_charge)**2 energy =         6756.211538
         Ewald: (sum_charge**2) energy =          572.026482
                          Ewald energy =         9037.644174
Basis initialisation ...... NGWF spheres initialised
... Projector spheres initialised
... NGWF tight boxes initialised
... Tight-boxes gathered
... NGWF basis size (local,global):        375836     34396432
... Nonlocal pseudopotential projector initialisation
... done

========================== Sparse matrix information ===========================
                        Overlap matrix filling:  22.30%
                        Density kernel filling:  82.74%                    
              NGWF-Proj overlap matrix filling:   6.98%
                    Hamiltonian matrix filling:  26.80%
                  NGWF diagonal matrix filling:   0.18%
                             KS matrix filling: 100.00% 
                           KSKS matrix filling: 100.00% 
================================================================================

Sparse matrix initialisation ... done
NGWF initialisation ... done
============ Calculation of NGWF S^-1 using Hotelling algorithm ================ 
         Iteration  |  Frobenius norm and Maximum abs value    (of I-S*S_n^-1)   
               1       0.46490851E+02     0.98837842E+00
               2       0.45814472E+02     0.97708855E+00
               3       0.44651489E+02     0.95544717E+00
               4       0.42874556E+02     0.91556655E+00
               5       0.40539609E+02     0.84845738E+00
               6       0.37778105E+02     0.76487439E+00
               7       0.34659659E+02     0.70383867E+00
               8       0.31454800E+02     0.65300988E+00
               9       0.28370226E+02     0.60722882E+00
              10       0.25076754E+02     0.56136828E+00
              11       0.20971930E+02     0.49930883E+00
              12       0.15689211E+02     0.40467603E+00
              13       0.96334849E+01     0.27495866E+00
              14       0.42028060E+01     0.13526716E+00
              15       0.94933069E+00     0.36420441E-01
              16       0.58945812E-01     0.30549594E-02
              17       0.39461063E-03     0.25943380E-04
              18       0.32963769E-05     0.28781869E-07
              19       0.32961024E-05     0.28781948E-07
              20       0.32961024E-05     0.28781948E-07
================================================================================
Up spin density kernel initialisation ... 
======= Optimisation of K by Palser-Manolopoulos canonical purification ======== 
         Iteration  |  Band structure energy |    c_n   
               1        -319.17767135891086    0.5076182
               2        -386.84702648410575    0.5191641
               3        -437.62561695731432    0.5415866
               4        -467.64123409048284    0.5695326
               5        -482.20976130946889    0.5812379
               6        -489.20034318022476    0.5716822
               7        -492.97327606728106    0.5606068
               8        -494.90511674311824    0.5619388
               9        -495.73828519596134    0.5783767
              10        -496.03606017481746    0.5890674
              11        -496.14025232739499    0.5632622
              12        -496.18165398783873    0.5008686
              13        -496.19738986436846    0.4548544
              14        -496.19995632736561    0.4580898
              15        -496.19982538373858    0.4580898
Termination criterion satisfied: band energy increased during last step.
Final occupancy bounds: [   -0.00013079936324:    1.00206295575527]
Closest occupancy to 0.5:     0.94379778925822
================================================================================
... done

Writing density kernel to file "C70_in_10-8.dkn" ... done

>>> Optimising kernel for current NGWFs:
   Initial electron number for spin 1:    2232.00000000
     Final electron number for spin 1:    2232.00000000

=================== Penalty functional idempotency correction ==================
 RMS occupancy error at iteration   1:  0.002814 (step -0.8009 Ne1=   2232.0000)
 RMS occupancy error at iteration   2:  0.001714 (step -1.0192 Ne1=   2232.0000)
 RMS occupancy error at iteration   3:  0.001380 (step -0.7902 Ne1=   2232.0000)
            Final RMS occupancy error   :  0.001188 (Ne1=   2232.0000)
               Final occupancy bounds   : [ -0.0087,  1.0054]
================================================================================

................................................................................
<<<<<<<<<<<<<< LNV (Original version) density kernel optimisation >>>>>>>>>>>>>>
~~~~~~~~~~~~~~~~~~~~~~~~~~~~~~~~~~~~~~~~~~~~~~~~~~~~~~~~~~~~~~~~~~~~~~~~~~~~~~~~
   iter  |      energy (Eh)       | rms gradient |  commutator  |   dE (Eh)
      ideal mu1:      -0.473590183099
             Q0:       -3169.052576955579
             G0:      -0.176494615064
   RMS gradient:       0.000206919194
     Trial step:       0.500000000000
             Q1:       -3169.091907384423
 Quadratic coef:       0.048916878688
 Linear coef   :      -0.088247307532
           Qmin:       -3169.092377058813
Quadratic minimum step length (  0.451006431206) accepted
    Initial Ne1:    2232.02227628
      Final Ne1:    2232.00000000

=================== Penalty functional idempotency correction ==================
 RMS occupancy error at iteration   1:  0.002150 (step -0.7238 Ne1=   2232.0000)
 RMS occupancy error at iteration   2:  0.001331 (step -0.6206 Ne1=   2232.0000)
 RMS occupancy error at iteration   3:  0.001182 (step -2.5727 Ne1=   2232.0000)
            Final RMS occupancy error   :  0.000879 (Ne1=   2232.0000)
               Final occupancy bounds   : [ -0.0055,  1.0033]
================================================================================

    1        -3.169052576956E+03     2.0692E-04     1.8700E-04
      ideal mu1:      -0.472887230196
             Q0:       -3169.078515832179
             G0:      -0.089146547238
   RMS gradient:       0.000140239920
     Trial step:       0.474871788595
             Q1:       -3168.951018231860
 Quadratic coef:       0.169830780653
 Linear coef   :      -0.042333180334
           Qmin:       -3169.081153896596
Quadratic minimum step length (  0.059184892706) accepted
    Initial Ne1:    2231.95539978
      Final Ne1:    2232.00000000

=================== Penalty functional idempotency correction ==================
 RMS occupancy error at iteration   1:  0.001065 (step -0.5165 Ne1=   2232.0000)
 RMS occupancy error at iteration   2:  0.000856 (step -1.8839 Ne1=   2232.0000)
 RMS occupancy error at iteration   3:  0.000775 (step -1.1262 Ne1=   2232.0000)
            Final RMS occupancy error   :  0.000738 (Ne1=   2232.0000)
               Final occupancy bounds   : [ -0.0023,  1.0031]
================================================================================

    2        -3.169078515832E+03     1.4024E-04     1.1347E-04    -2.5939E-02
      ideal mu1:      -0.472867619959
             Q0:       -3169.080417169121
             G0:      -0.102953619877
   RMS gradient:       0.000117288333
     Trial step:       0.167646162667
             Q1:       -3169.076956379237
 Quadratic coef:       0.020720569190
 Linear coef   :      -0.017259779305
           Qmin:       -3169.084011423446
Quadratic minimum step length (  0.069822786780) accepted
    Initial Ne1:    2231.96045934
      Final Ne1:    2232.00000000

=================== Penalty functional idempotency correction ==================
 RMS occupancy error at iteration   1:  0.001208 (step -0.5612 Ne1=   2232.0000)
 RMS occupancy error at iteration   2:  0.000787 (step -0.9703 Ne1=   2232.0000)
 RMS occupancy error at iteration   3:  0.000728 (step -1.2014 Ne1=   2232.0000)
            Final RMS occupancy error   :  0.000691 (Ne1=   2232.0000)
               Final occupancy bounds   : [ -0.0022,  1.0022]
================================================================================

    3        -3.169080417169E+03     1.1729E-04     1.0866E-04    -1.9013E-03
      ideal mu1:      -0.472880842256
             Q0:       -3169.083164442704
             G0:      -0.137532615243
   RMS gradient:       0.000110917505
     Trial step:       0.108192061957
             Q1:       -3169.074101455241
 Quadratic coef:       0.023942924693
 Linear coef   :      -0.014879937230
           Qmin:       -3169.085476321211
Quadratic minimum step length (  0.033619349167) accepted
    Initial Ne1:    2231.97796955
      Final Ne1:    2232.00000000

=================== Penalty functional idempotency correction ==================
 RMS occupancy error at iteration   1:  0.000969 (step -0.5494 Ne1=   2232.0000)
 RMS occupancy error at iteration   2:  0.000719 (step -1.2014 Ne1=   2232.0000)
 RMS occupancy error at iteration   3:  0.000676 (step -0.9842 Ne1=   2232.0000)
            Final RMS occupancy error   :  0.000653 (Ne1=   2232.0000)
               Final occupancy bounds   : [ -0.0023,  1.0020]
================================================================================

    4        -3.169083164443E+03     1.1092E-04     9.5197E-05    -2.7473E-03
      ideal mu1:      -0.472900294514
    5        -3.169084444900E+03     9.7437E-05     8.8169E-05    -1.2805E-03
Finished density kernel iterations (   5)

Writing density kernel to file "C70_in_10-8.dkn" ... done


>>> Density kernel optimised for the current NGWF basis:
     ~~~~~~~~~~~~~~~~~~~~~~~~~~~~~~~~~~~~~~~~~~~~~~~~~~~~~~~~~~~
     Total energy                =  -3.16908444490002E+03  Eh
     Estimated bandgap           =   3.0570E-02  Eh
     RMS occupancy error         =   6.5330E-04
     [H,K] commutator            =   8.8169E-05
     Occupancy bounds            = [ -0.002:  1.002]
     ~~~~~~~~~~~~~~~~~~~~~~~~~~~~~~~~~~~~~~~~~~~~~~~~~~~~~~~~~~~




################################################################################
########################### NGWF CG iteration  001 #############################
################################################################################
****** Reciprocal space K.E. preconditioning with k_zero =  3.0000 a0^-1 *******

>>> Checking for convergence of NGWFs:   NOT CONVERGED
  ========================================================================
         NGWF RMS gradient =  1.2925E-03 >  3.0000E-05  | above tolerance
  ========================================================================

>>> Improving NGWFs using line search:
============ Calculation of NGWF S^-1 using Hotelling algorithm ================ 
         Iteration  |  Frobenius norm and Maximum abs value    (of I-S*S_n^-1)   
               1       0.45299030E-01     0.10179147E-02
               2       0.44633364E-04     0.11326562E-05
               3       0.36029763E-05     0.33063607E-07
               4       0.36029770E-05     0.33063612E-07
================================================================================
============ Calculation of NGWF S^-1 using Hotelling algorithm ================ 
         Iteration  |  Frobenius norm and Maximum abs value    (of I-S*S_n^-1)   
               1       0.33099566E+00     0.98126829E-02
               2       0.32491223E-02     0.96508717E-04
               3       0.72339751E-05     0.79014927E-07
               4       0.72243382E-05     0.79011953E-07
               5       0.72243382E-05     0.79011953E-07
================================================================================
------------------------------- NGWF line search -------------------------------
RMS gradient                =       0.00129245965192
Trial step length           =               0.122474
Gradient along search dir.  =        -62.60197762008
Functional at step 0        =   -3169.08444490002057
Functional at step 1        =   -3176.27630670487497
Functional predicted        =   -3200.00553673556942
Selected quadratic step     =               0.987863
Conjugate gradients coeff.  =               0.000000
--------------------------- NGWF line search finished --------------------------
                                               
Writing NGWFs to file "C70_in_10-8.tightbox_ngwfs"....  done

>>> Optimising kernel for current NGWFs:
   Initial electron number for spin 1:    2234.65356121
     Final electron number for spin 1:    2232.00000000

=================== Penalty functional idempotency correction ==================
 RMS occupancy error at iteration   1:  0.002778 (step -0.4975 Ne1=   2232.0000)
 RMS occupancy error at iteration   2:  0.000650 (step -1.6360 Ne1=   2232.0000)
 RMS occupancy error at iteration   3:  0.000637 (step -0.7919 Ne1=   2232.0000)
            Final RMS occupancy error   :  0.000623 (Ne1=   2232.0000)
               Final occupancy bounds   : [ -0.0020,  1.0026]
================================================================================

................................................................................
<<<<<<<<<<<<<< LNV (Original version) density kernel optimisation >>>>>>>>>>>>>>
~~~~~~~~~~~~~~~~~~~~~~~~~~~~~~~~~~~~~~~~~~~~~~~~~~~~~~~~~~~~~~~~~~~~~~~~~~~~~~~~
   iter  |      energy (Eh)       | rms gradient |  commutator  |   dE (Eh)
      ideal mu1:      -0.363745061891
             Q0:       -3199.990847920744
             G0:      -0.437693691900
   RMS gradient:       0.000325851851
     Trial step:       0.060310419564
             Q1:       -3200.015751451486
 Quadratic coef:       0.001493959458
 Linear coef   :      -0.026397490199
           Qmin:       -3200.107455417234
Quadratic minimum step length (  0.532826945635) accepted
    Initial Ne1:    2231.72685679
      Final Ne1:    2232.00000000

=================== Penalty functional idempotency correction ==================
 RMS occupancy error at iteration   1:  0.001549 (step -0.6679 Ne1=   2232.0000)
 RMS occupancy error at iteration   2:  0.000928 (step -0.7519 Ne1=   2232.0000)
 RMS occupancy error at iteration   3:  0.000777 (step -1.3624 Ne1=   2232.0000)
            Final RMS occupancy error   :  0.000677 (Ne1=   2232.0000)
               Final occupancy bounds   : [ -0.0031,  1.0019]
================================================================================

    1        -3.199990847921E+03     3.2585E-04     2.9860E-04
      ideal mu1:      -0.369865956296
             Q0:       -3200.100123682198
             G0:      -0.058925470754
   RMS gradient:       0.000117741738
     Trial step:       0.179262423966
             Q1:       -3200.105105043755
 Quadratic coef:       0.005581761163
 Linear coef   :      -0.010563122721
           Qmin:       -3200.105121189183
Quadratic minimum step length (  0.169621283334) accepted
    Initial Ne1:    2231.79363676
      Final Ne1:    2232.00000000

=================== Penalty functional idempotency correction ==================
 RMS occupancy error at iteration   1:  0.001241 (step -0.5459 Ne1=   2232.0000)
 RMS occupancy error at iteration   2:  0.000766 (step -1.1652 Ne1=   2232.0000)
 RMS occupancy error at iteration   3:  0.000673 (step -0.8432 Ne1=   2232.0000)
            Final RMS occupancy error   :  0.000638 (Ne1=   2232.0000)
               Final occupancy bounds   : [ -0.0021,  1.0017]
================================================================================

    2        -3.200100123682E+03     1.1774E-04     1.0756E-04    -1.0928E-01
      ideal mu1:      -0.370170529779
             Q0:       -3200.104318410586
             G0:      -0.079194632099
   RMS gradient:       0.000101940245
     Trial step:       0.174375234499
             Q1:       -3200.095873954356
 Quadratic coef:       0.022254038773
 Linear coef   :      -0.013809582543
           Qmin:       -3200.106460769687
Quadratic minimum step length (  0.054103644262) accepted
    Initial Ne1:    2231.94216678
      Final Ne1:    2232.00000000

=================== Penalty functional idempotency correction ==================
 RMS occupancy error at iteration   1:  0.000946 (step -0.5437 Ne1=   2232.0000)
 RMS occupancy error at iteration   2:  0.000671 (step -1.3351 Ne1=   2232.0000)
 RMS occupancy error at iteration   3:  0.000625 (step -0.8257 Ne1=   2232.0000)
            Final RMS occupancy error   :  0.000602 (Ne1=   2232.0000)
               Final occupancy bounds   : [ -0.0020,  1.0017]
================================================================================

    3        -3.200104318411E+03     1.0194E-04     9.3581E-05    -4.1947E-03
      ideal mu1:      -0.370243060379
             Q0:       -3200.105305253133
             G0:      -0.099978255803
   RMS gradient:       0.000094839666
     Trial step:       0.097130508366
             Q1:       -3200.100387260764
 Quadratic coef:       0.014628931181
 Linear coef   :      -0.009710938812
           Qmin:       -3200.106916825630
Quadratic minimum step length (  0.032238459934) accepted
    Initial Ne1:    2231.96713673
      Final Ne1:    2232.00000000

=================== Penalty functional idempotency correction ==================
 RMS occupancy error at iteration   1:  0.000856 (step -0.5384 Ne1=   2232.0000)
 RMS occupancy error at iteration   2:  0.000628 (step -1.3818 Ne1=   2232.0000)
 RMS occupancy error at iteration   3:  0.000596 (step -0.8051 Ne1=   2232.0000)
            Final RMS occupancy error   :  0.000580 (Ne1=   2232.0000)
               Final occupancy bounds   : [ -0.0008,  1.0016]
================================================================================

    4        -3.200105305253E+03     9.4840E-05     8.8485E-05    -9.8684E-04
      ideal mu1:      -0.370279255888
    5        -3.200105958672E+03     8.9531E-05     8.5172E-05    -6.5342E-04
Finished density kernel iterations (   5)

Writing density kernel to file "C70_in_10-8.dkn" ... done


>>> Density kernel optimised for the current NGWF basis:
     ~~~~~~~~~~~~~~~~~~~~~~~~~~~~~~~~~~~~~~~~~~~~~~~~~~~~~~~~~~~
     Total energy                =  -3.20010595867185E+03  Eh
     Estimated bandgap           =   3.1952E-02  Eh
     RMS occupancy error         =   5.7990E-04
     [H,K] commutator            =   8.5172E-05
     Occupancy bounds            = [ -0.002:  1.002]
     ~~~~~~~~~~~~~~~~~~~~~~~~~~~~~~~~~~~~~~~~~~~~~~~~~~~~~~~~~~~




################################################################################
########################### NGWF CG iteration  002 #############################
################################################################################
****** Reciprocal space K.E. preconditioning with k_zero =  3.0000 a0^-1 *******

>>> Checking for convergence of NGWFs:   NOT CONVERGED
  ========================================================================
         NGWF RMS gradient =  4.3541E-04 >  3.0000E-05  | above tolerance
  ========================================================================

>>> Improving NGWFs using line search:
============ Calculation of NGWF S^-1 using Hotelling algorithm ================ 
         Iteration  |  Frobenius norm and Maximum abs value    (of I-S*S_n^-1)   
               1       0.11004550E+00     0.23007168E-02
               2       0.36362824E-03     0.67182069E-05
               3       0.99106042E-05     0.11327664E-06
               4       0.99106126E-05     0.11327670E-06
================================================================================
============ Calculation of NGWF S^-1 using Hotelling algorithm ================ 
         Iteration  |  Frobenius norm and Maximum abs value    (of I-S*S_n^-1)   
               1       0.21823439E+00     0.48389836E-02
               2       0.14758658E-02     0.29089980E-04
               3       0.16491073E-04     0.19404977E-06
               4       0.16490825E-04     0.19404921E-06
               5       0.16490825E-04     0.19404921E-06
================================================================================
------------------------------- NGWF line search -------------------------------
RMS gradient                =       0.00043540818329
Trial step length           =               0.347833
Gradient along search dir.  =         -7.14659452008
Functional at step 0        =   -3200.10595867184702
Functional at step 1        =   -3202.14533100802782
Functional predicted        =   -3203.56620050877973
Selected quadratic step     =               0.968361
Conjugate gradients coeff.  =               0.113490
--------------------------- NGWF line search finished --------------------------
                                               
Writing NGWFs to file "C70_in_10-8.tightbox_ngwfs"....  done

>>> Optimising kernel for current NGWFs:
   Initial electron number for spin 1:    2234.88852233
     Final electron number for spin 1:    2232.00000000

=================== Penalty functional idempotency correction ==================
 RMS occupancy error at iteration   1:  0.001419 (step -0.4983 Ne1=   2232.0000)
 RMS occupancy error at iteration   2:  0.000576 (step -6.4641 Ne1=   2232.0000)
 RMS occupancy error at iteration   3:  0.000547 (step -0.5373 Ne1=   2232.0000)
            Final RMS occupancy error   :  0.000536 (Ne1=   2232.0000)
               Final occupancy bounds   : [ -0.0009,  1.0018]
================================================================================

................................................................................
<<<<<<<<<<<<<< LNV (Original version) density kernel optimisation >>>>>>>>>>>>>>
~~~~~~~~~~~~~~~~~~~~~~~~~~~~~~~~~~~~~~~~~~~~~~~~~~~~~~~~~~~~~~~~~~~~~~~~~~~~~~~~
   iter  |      energy (Eh)       | rms gradient |  commutator  |   dE (Eh)
      ideal mu1:      -0.345662475055
             Q0:       -3203.573144883896
             G0:      -0.048704356480
   RMS gradient:       0.000108697349
     Trial step:       0.055958359539
             Q1:       -3203.575778273145
 Quadratic coef:       0.000092026642
 Linear coef   :      -0.002725415891
           Qmin:       -3203.593323529042
Quadratic minimum step length (  0.828617668096) accepted
    Initial Ne1:    2231.94047782
      Final Ne1:    2232.00000000

=================== Penalty functional idempotency correction ==================
 RMS occupancy error at iteration   1:  0.001996 (step -0.6430 Ne1=   2232.0000)
 RMS occupancy error at iteration   2:  0.001098 (step -0.8348 Ne1=   2232.0000)
 RMS occupancy error at iteration   3:  0.000820 (step -0.9984 Ne1=   2232.0000)
            Final RMS occupancy error   :  0.000697 (Ne1=   2232.0000)
               Final occupancy bounds   : [ -0.0023,  1.0016]
================================================================================

    1        -3.203573144884E+03     1.0870E-04     1.0469E-04
      ideal mu1:      -0.347413211166
             Q0:       -3203.587173098413
             G0:      -0.038557437207
   RMS gradient:       0.000083821660
     Trial step:       0.215332499619
             Q1:       -3203.582366843566
 Quadratic coef:       0.013108924179
 Linear coef   :      -0.008302669333
           Qmin:       -3203.588487743251
Quadratic minimum step length (  0.068191505135) accepted
    Initial Ne1:    2231.97451958
      Final Ne1:    2232.00000000

=================== Penalty functional idempotency correction ==================
 RMS occupancy error at iteration   1:  0.000914 (step -0.5914 Ne1=   2232.0000)
 RMS occupancy error at iteration   2:  0.000708 (step -1.4081 Ne1=   2232.0000)
 RMS occupancy error at iteration   3:  0.000631 (step -0.6635 Ne1=   2232.0000)
            Final RMS occupancy error   :  0.000594 (Ne1=   2232.0000)
               Final occupancy bounds   : [ -0.0006,  1.0013]
================================================================================

    2        -3.203587173098E+03     8.3822E-05     7.3881E-05    -1.4028E-02
      ideal mu1:      -0.347462724962
             Q0:       -3203.586184115682
             G0:      -0.058469990368
   RMS gradient:       0.000079518333
     Trial step:       0.121176925417
             Q1:       -3203.580326291330
 Quadratic coef:       0.012943038013
 Linear coef   :      -0.007085213662
           Qmin:       -3203.587153753810
Quadratic minimum step length (  0.033167035691) accepted
    Initial Ne1:    2231.98789259
      Final Ne1:    2232.00000000

=================== Penalty functional idempotency correction ==================
 RMS occupancy error at iteration   1:  0.000777 (step -0.5658 Ne1=   2232.0000)
 RMS occupancy error at iteration   2:  0.000615 (step -1.3760 Ne1=   2232.0000)
 RMS occupancy error at iteration   3:  0.000580 (step -0.7912 Ne1=   2232.0000)
            Final RMS occupancy error   :  0.000558 (Ne1=   2232.0000)
               Final occupancy bounds   : [ -0.0006,  1.0015]
================================================================================

    3        -3.203586184116E+03     7.9518E-05     7.4597E-05     9.8898E-04
      ideal mu1:      -0.347465009543
             Q0:       -3203.585762766545
             G0:      -0.086230319124
   RMS gradient:       0.000080110135
     Trial step:       0.063396209747
             Q1:       -3203.582595606872
 Quadratic coef:       0.008633835071
 Linear coef   :      -0.005466675398
           Qmin:       -3203.586628098685
Quadratic minimum step length (  0.020070252518) accepted
    Initial Ne1:    2231.99161968
      Final Ne1:    2232.00000000

=================== Penalty functional idempotency correction ==================
 RMS occupancy error at iteration   1:  0.000719 (step -0.5538 Ne1=   2232.0000)
 RMS occupancy error at iteration   2:  0.000577 (step -1.4065 Ne1=   2232.0000)
 RMS occupancy error at iteration   3:  0.000552 (step -0.7837 Ne1=   2232.0000)
            Final RMS occupancy error   :  0.000538 (Ne1=   2232.0000)
               Final occupancy bounds   : [ -0.0008,  1.0014]
================================================================================

    4        -3.203585762767E+03     8.0110E-05     7.4438E-05     4.2135E-04
      ideal mu1:      -0.347454991909
    5        -3.203585549776E+03     7.7682E-05     7.4092E-05     2.1299E-04
Finished density kernel iterations (   5)

Writing density kernel to file "C70_in_10-8.dkn" ... done


>>> Density kernel optimised for the current NGWF basis:
     ~~~~~~~~~~~~~~~~~~~~~~~~~~~~~~~~~~~~~~~~~~~~~~~~~~~~~~~~~~~
     Total energy                =  -3.20358554977627E+03  Eh
     Estimated bandgap           =   2.9312E-02  Eh
     RMS occupancy error         =   5.3822E-04
     [H,K] commutator            =   7.4092E-05
     Occupancy bounds            = [ -0.001:  1.001]
     ~~~~~~~~~~~~~~~~~~~~~~~~~~~~~~~~~~~~~~~~~~~~~~~~~~~~~~~~~~~




################################################################################
########################### NGWF CG iteration  003 #############################
################################################################################
****** Reciprocal space K.E. preconditioning with k_zero =  3.0000 a0^-1 *******

>>> Checking for convergence of NGWFs:   NOT CONVERGED
  ========================================================================
         NGWF RMS gradient =  1.7528E-04 >  3.0000E-05  | above tolerance
  ========================================================================

>>> Improving NGWFs using line search:
============ Calculation of NGWF S^-1 using Hotelling algorithm ================ 
         Iteration  |  Frobenius norm and Maximum abs value    (of I-S*S_n^-1)   
               1       0.16593898E+00     0.32702990E-02
               2       0.87717264E-03     0.18401927E-04
               3       0.24031080E-04     0.28412122E-06
               4       0.24031090E-04     0.28412128E-06
================================================================================
============ Calculation of NGWF S^-1 using Hotelling algorithm ================ 
         Iteration  |  Frobenius norm and Maximum abs value    (of I-S*S_n^-1)   
               1       0.12291674E+00     0.24426507E-02
               2       0.49362837E-03     0.10278729E-04
               3       0.30511807E-04     0.36110944E-06
               4       0.30511895E-04     0.36111032E-06
================================================================================
------------------------------- NGWF line search -------------------------------
RMS gradient                =       0.00017527554727
Trial step length           =               0.580369
Gradient along search dir.  =         -1.15825992969
Functional at step 0        =   -3203.58554977626864
Functional at step 1        =   -3204.05913955075039
Functional predicted        =   -3204.15429677574684
Selected quadratic step     =               0.982071
Conjugate gradients coeff.  =               0.162050
--------------------------- NGWF line search finished --------------------------
                                               
Writing NGWFs to file "C70_in_10-8.tightbox_ngwfs"....  done

>>> Optimising kernel for current NGWFs:
   Initial electron number for spin 1:    2233.97564629
     Final electron number for spin 1:    2232.00000000

=================== Penalty functional idempotency correction ==================
 RMS occupancy error at iteration   1:  0.000999 (step -0.4992 Ne1=   2232.0000)
 RMS occupancy error at iteration   2:  0.000535 (step -8.7281 Ne1=   2232.0000)
 RMS occupancy error at iteration   3:  0.000501 (step -0.4770 Ne1=   2232.0000)
            Final RMS occupancy error   :  0.000497 (Ne1=   2232.0000)
               Final occupancy bounds   : [ -0.0007,  1.0015]
================================================================================

................................................................................
<<<<<<<<<<<<<< LNV (Original version) density kernel optimisation >>>>>>>>>>>>>>
~~~~~~~~~~~~~~~~~~~~~~~~~~~~~~~~~~~~~~~~~~~~~~~~~~~~~~~~~~~~~~~~~~~~~~~~~~~~~~~~
   iter  |      energy (Eh)       | rms gradient |  commutator  |   dE (Eh)
      ideal mu1:      -0.343474647967
             Q0:       -3204.151818180469
             G0:      -0.024022994482
   RMS gradient:       0.000076339378
     Trial step:       0.035670407038
             Q1:       -3204.152659529498
 Quadratic coef:       0.000015560962
 Linear coef   :      -0.000856909991
           Qmin:       -3204.163615245438
Quadratic minimum step length (  0.982147748309) accepted
    Initial Ne1:    2232.00622288
      Final Ne1:    2232.00000000

=================== Penalty functional idempotency correction ==================
 RMS occupancy error at iteration   1:  0.002186 (step -0.6416 Ne1=   2232.0000)
 RMS occupancy error at iteration   2:  0.001183 (step -0.8534 Ne1=   2232.0000)
 RMS occupancy error at iteration   3:  0.000847 (step -0.9302 Ne1=   2232.0000)
            Final RMS occupancy error   :  0.000709 (Ne1=   2232.0000)
               Final occupancy bounds   : [ -0.0010,  1.0037]
================================================================================

    1        -3.204151818180E+03     7.6339E-05     7.6341E-05
      ideal mu1:      -0.343307500952
             Q0:       -3204.158157582641
             G0:      -0.040219493595
   RMS gradient:       0.000076612284
     Trial step:       0.187172674164
             Q1:       -3204.156678171218
 Quadratic coef:       0.009007401593
 Linear coef   :      -0.007527990170
           Qmin:       -3204.159730473430
Quadratic minimum step length (  0.078215345271) accepted
    Initial Ne1:    2231.98366366
      Final Ne1:    2232.00000000

=================== Penalty functional idempotency correction ==================
 RMS occupancy error at iteration   1:  0.000993 (step -0.5990 Ne1=   2232.0000)
 RMS occupancy error at iteration   2:  0.000745 (step -1.2801 Ne1=   2232.0000)
 RMS occupancy error at iteration   3:  0.000646 (step -0.7318 Ne1=   2232.0000)
            Final RMS occupancy error   :  0.000595 (Ne1=   2232.0000)
               Final occupancy bounds   : [ -0.0012,  1.0014]
================================================================================

    2        -3.204158157583E+03     7.6612E-05     6.6215E-05    -6.3394E-03
      ideal mu1:      -0.343316384872
             Q0:       -3204.157138392272
             G0:      -0.061249996751
   RMS gradient:       0.000075369634
     Trial step:       0.120994939295
             Q1:       -3204.148802910976
 Quadratic coef:       0.015746420934
 Linear coef   :      -0.007410939639
           Qmin:       -3204.158010368617
Quadratic minimum step length (  0.028472698509) accepted
    Initial Ne1:    2231.99331165
      Final Ne1:    2232.00000000

=================== Penalty functional idempotency correction ==================
 RMS occupancy error at iteration   1:  0.000759 (step -0.5734 Ne1=   2232.0000)
 RMS occupancy error at iteration   2:  0.000615 (step -1.4452 Ne1=   2232.0000)
 RMS occupancy error at iteration   3:  0.000570 (step -0.7680 Ne1=   2232.0000)
            Final RMS occupancy error   :  0.000543 (Ne1=   2232.0000)
               Final occupancy bounds   : [ -0.0010,  1.0012]
================================================================================

    3        -3.204157138392E+03     7.5370E-05     6.7141E-05     1.0192E-03
      ideal mu1:      -0.343327451187
             Q0:       -3204.156416978271
             G0:      -0.078686756608
   RMS gradient:       0.000073149987
     Trial step:       0.058694568979
             Q1:       -3204.153860004769
 Quadratic coef:       0.007175458766
 Linear coef   :      -0.004618485263
           Qmin:       -3204.157160150479
Quadratic minimum step length (  0.018889384688) accepted
    Initial Ne1:    2231.99511820
      Final Ne1:    2232.00000000

=================== Penalty functional idempotency correction ==================
 RMS occupancy error at iteration   1:  0.000693 (step -0.5530 Ne1=   2232.0000)
 RMS occupancy error at iteration   2:  0.000563 (step -1.5126 Ne1=   2232.0000)
 RMS occupancy error at iteration   3:  0.000535 (step -0.7706 Ne1=   2232.0000)
            Final RMS occupancy error   :  0.000519 (Ne1=   2232.0000)
               Final occupancy bounds   : [ -0.0018,  1.0014]
================================================================================

    4        -3.204156416978E+03     7.3150E-05     6.7764E-05     7.2141E-04
      ideal mu1:      -0.343339301151
    5        -3.204156004747E+03     7.1151E-05     6.8016E-05     4.1223E-04
Finished density kernel iterations (   5)

Writing density kernel to file "C70_in_10-8.dkn" ... done


>>> Density kernel optimised for the current NGWF basis:
     ~~~~~~~~~~~~~~~~~~~~~~~~~~~~~~~~~~~~~~~~~~~~~~~~~~~~~~~~~~~
     Total energy                =  -3.20415600474699E+03  Eh
     Estimated bandgap           =   2.5748E-02  Eh
     RMS occupancy error         =   5.1891E-04
     [H,K] commutator            =   6.8016E-05
     Occupancy bounds            = [ -0.001:  1.001]
     ~~~~~~~~~~~~~~~~~~~~~~~~~~~~~~~~~~~~~~~~~~~~~~~~~~~~~~~~~~~




################################################################################
########################### NGWF CG iteration  004 #############################
################################################################################
****** Reciprocal space K.E. preconditioning with k_zero =  3.0000 a0^-1 *******

>>> Checking for convergence of NGWFs:   NOT CONVERGED
  ========================================================================
         NGWF RMS gradient =  8.0533E-05 >  3.0000E-05  | above tolerance
  ========================================================================

>>> Improving NGWFs using line search:
============ Calculation of NGWF S^-1 using Hotelling algorithm ================ 
         Iteration  |  Frobenius norm and Maximum abs value    (of I-S*S_n^-1)   
               1       0.18841554E+00     0.35530288E-02
               2       0.11643881E-02     0.23850466E-04
               3       0.44631036E-04     0.52913540E-06
               4       0.44630948E-04     0.52913545E-06
               5       0.44630948E-04     0.52913545E-06
================================================================================
============ Calculation of NGWF S^-1 using Hotelling algorithm ================ 
         Iteration  |  Frobenius norm and Maximum abs value    (of I-S*S_n^-1)   
               1       0.72188221E-01     0.13813038E-02
               2       0.18239744E-03     0.36178348E-05
               3       0.50777578E-04     0.60151399E-06
               4       0.50777645E-04     0.60151472E-06
================================================================================
------------------------------- NGWF line search -------------------------------
RMS gradient                =       0.00008053255744
Trial step length           =               0.754960
Gradient along search dir.  =         -0.24345488570
Functional at step 0        =   -3204.15600474699158
Functional at step 1        =   -3204.27214712979003
Functional predicted        =   -3204.28083410069485
Selected quadratic step     =               1.025482
Conjugate gradients coeff.  =               0.211106
--------------------------- NGWF line search finished --------------------------
                                               
Writing NGWFs to file "C70_in_10-8.tightbox_ngwfs"....  done

>>> Optimising kernel for current NGWFs:
   Initial electron number for spin 1:    2232.86551306
     Final electron number for spin 1:    2232.00000000

=================== Penalty functional idempotency correction ==================
 RMS occupancy error at iteration   1:  0.000765 (step -0.5010 Ne1=   2232.0000)
 RMS occupancy error at iteration   2:  0.000516 (step -8.2170 Ne1=   2232.0000)
 RMS occupancy error at iteration   3:  0.000483 (step -0.5919 Ne1=   2232.0000)
            Final RMS occupancy error   :  0.000478 (Ne1=   2232.0000)
               Final occupancy bounds   : [ -0.0008,  1.0014]
================================================================================

................................................................................
<<<<<<<<<<<<<< LNV (Original version) density kernel optimisation >>>>>>>>>>>>>>
~~~~~~~~~~~~~~~~~~~~~~~~~~~~~~~~~~~~~~~~~~~~~~~~~~~~~~~~~~~~~~~~~~~~~~~~~~~~~~~~
   iter  |      energy (Eh)       | rms gradient |  commutator  |   dE (Eh)
      ideal mu1:      -0.342911169879
             Q0:       -3204.278560773233
             G0:      -0.020204408944
   RMS gradient:       0.000070009685
     Trial step:       0.033297211483
             Q1:       -3204.279223014355
 Quadratic coef:       0.000010509355
 Linear coef   :      -0.000672750478
           Qmin:       -3204.289327209097
Quadratic minimum step length (  1.065751133169) accepted
    Initial Ne1:    2231.88501293
      Final Ne1:    2232.00000000

=================== Penalty functional idempotency correction ==================
 RMS occupancy error at iteration   1:  0.002288 (step -0.6323 Ne1=   2232.0000)
 RMS occupancy error at iteration   2:  0.001250 (step -0.8805 Ne1=   2232.0000)
 RMS occupancy error at iteration   3:  0.000869 (step -0.8917 Ne1=   2232.0000)
            Final RMS occupancy error   :  0.000724 (Ne1=   2232.0000)
               Final occupancy bounds   : [ -0.0008,  1.0033]
================================================================================

    1        -3.204278560773E+03     7.0010E-05     7.0233E-05
      ideal mu1:      -0.342751418942
             Q0:       -3204.283950669201
             G0:      -0.037516098872
   RMS gradient:       0.000072150619
     Trial step:       0.188378716604
             Q1:       -3204.284956276805
 Quadratic coef:       0.006061626953
 Linear coef   :      -0.007067234558
           Qmin:       -3204.286010586640
Quadratic minimum step length (  0.109815119457) accepted
    Initial Ne1:    2231.94571232
      Final Ne1:    2232.00000000

=================== Penalty functional idempotency correction ==================
 RMS occupancy error at iteration   1:  0.001111 (step -0.5753 Ne1=   2232.0000)
 RMS occupancy error at iteration   2:  0.000812 (step -1.3145 Ne1=   2232.0000)
 RMS occupancy error at iteration   3:  0.000669 (step -0.8098 Ne1=   2232.0000)
            Final RMS occupancy error   :  0.000604 (Ne1=   2232.0000)
               Final occupancy bounds   : [ -0.0008,  1.0014]
================================================================================

    2        -3.204283950669E+03     7.2151E-05     6.1802E-05    -5.3899E-03
      ideal mu1:      -0.342753871449
             Q0:       -3204.282895821815
             G0:      -0.055006404080
   RMS gradient:       0.000070263747
     Trial step:       0.143829173908
             Q1:       -3204.278405768415
 Quadratic coef:       0.012401579058
 Linear coef   :      -0.007911525658
           Qmin:       -3204.284157601423
Quadratic minimum step length (  0.045877552949) accepted
    Initial Ne1:    2231.97497901
      Final Ne1:    2232.00000000

=================== Penalty functional idempotency correction ==================
 RMS occupancy error at iteration   1:  0.000850 (step -0.5502 Ne1=   2232.0000)
 RMS occupancy error at iteration   2:  0.000655 (step -1.4760 Ne1=   2232.0000)
 RMS occupancy error at iteration   3:  0.000581 (step -0.8787 Ne1=   2232.0000)
            Final RMS occupancy error   :  0.000545 (Ne1=   2232.0000)
               Final occupancy bounds   : [ -0.0018,  1.0014]
================================================================================

    3        -3.204282895822E+03     7.0264E-05     6.2934E-05     1.0548E-03
      ideal mu1:      -0.342763105477
             Q0:       -3204.282159654939
             G0:      -0.069167145629
   RMS gradient:       0.000067944728
     Trial step:       0.081231339651
             Q1:       -3204.280778694607
 Quadratic coef:       0.006999500231
 Linear coef   :      -0.005618539899
           Qmin:       -3204.283287163674
Quadratic minimum step length (  0.032602436447) accepted
    Initial Ne1:    2231.98121440
      Final Ne1:    2232.00000000

=================== Penalty functional idempotency correction ==================
 RMS occupancy error at iteration   1:  0.000785 (step -0.5417 Ne1=   2232.0000)
 RMS occupancy error at iteration   2:  0.000595 (step -1.3913 Ne1=   2232.0000)
 RMS occupancy error at iteration   3:  0.000544 (step -0.9452 Ne1=   2232.0000)
            Final RMS occupancy error   :  0.000521 (Ne1=   2232.0000)
               Final occupancy bounds   : [ -0.0009,  1.0014]
================================================================================

    4        -3.204282159655E+03     6.7945E-05     6.3783E-05     7.3617E-04
      ideal mu1:      -0.342774746339
    5        -3.204281790090E+03     6.7214E-05     6.4159E-05     3.6956E-04
Finished density kernel iterations (   5)

Writing density kernel to file "C70_in_10-8.dkn" ... done


>>> Density kernel optimised for the current NGWF basis:
     ~~~~~~~~~~~~~~~~~~~~~~~~~~~~~~~~~~~~~~~~~~~~~~~~~~~~~~~~~~~
     Total energy                =  -3.20428179009004E+03  Eh
     Estimated bandgap           =   2.5844E-02  Eh
     RMS occupancy error         =   5.2071E-04
     [H,K] commutator            =   6.4159E-05
     Occupancy bounds            = [ -0.001:  1.001]
     ~~~~~~~~~~~~~~~~~~~~~~~~~~~~~~~~~~~~~~~~~~~~~~~~~~~~~~~~~~~




################################################################################
########################### NGWF CG iteration  005 #############################
################################################################################
****** Reciprocal space K.E. preconditioning with k_zero =  3.0000 a0^-1 *******

>>> Checking for convergence of NGWFs:   NOT CONVERGED
  ========================================================================
         NGWF RMS gradient =  4.2588E-05 >  3.0000E-05  | above tolerance
  ========================================================================

>>> Improving NGWFs using line search:
============ Calculation of NGWF S^-1 using Hotelling algorithm ================ 
         Iteration  |  Frobenius norm and Maximum abs value    (of I-S*S_n^-1)   
               1       0.13142284E+00     0.22265808E-02
               2       0.57989356E-03     0.11318793E-04
               3       0.68813242E-04     0.81051723E-06
               4       0.68813277E-04     0.81051812E-06
================================================================================
============ Calculation of NGWF S^-1 using Hotelling algorithm ================ 
         Iteration  |  Frobenius norm and Maximum abs value    (of I-S*S_n^-1)   
               1       0.20026580E-01     0.34696386E-03
               2       0.73064815E-04     0.84459548E-06
               3       0.71791948E-04     0.84487063E-06
               4       0.71791956E-04     0.84487071E-06
================================================================================
------------------------------- NGWF line search -------------------------------
RMS gradient                =       0.00004258775578
Trial step length           =               0.879885
Gradient along search dir.  =         -0.06797098673
Functional at step 0        =   -3204.28179009003952
Functional at step 1        =   -3204.31548686844235
Functional predicted        =   -3204.31603801106166
Selected quadratic step     =               1.007722
Conjugate gradients coeff.  =               0.000000
--------------------------- NGWF line search finished --------------------------
                                               
Writing NGWFs to file "C70_in_10-8.tightbox_ngwfs"....  done

>>> Optimising kernel for current NGWFs:
   Initial electron number for spin 1:    2231.81375449
     Final electron number for spin 1:    2232.00000000

=================== Penalty functional idempotency correction ==================
 RMS occupancy error at iteration   1:  0.000621 (step -0.5074 Ne1=   2232.0000)
 RMS occupancy error at iteration   2:  0.000515 (step -6.8006 Ne1=   2232.0000)
 RMS occupancy error at iteration   3:  0.000479 (step -0.6121 Ne1=   2232.0000)
            Final RMS occupancy error   :  0.000471 (Ne1=   2232.0000)
               Final occupancy bounds   : [ -0.0013,  1.0016]
================================================================================

................................................................................
<<<<<<<<<<<<<< LNV (Original version) density kernel optimisation >>>>>>>>>>>>>>
~~~~~~~~~~~~~~~~~~~~~~~~~~~~~~~~~~~~~~~~~~~~~~~~~~~~~~~~~~~~~~~~~~~~~~~~~~~~~~~~
   iter  |      energy (Eh)       | rms gradient |  commutator  |   dE (Eh)
      ideal mu1:      -0.343223042554
             Q0:       -3204.313894393348
             G0:      -0.018415000540
   RMS gradient:       0.000066837611
     Trial step:       0.051462020835
             Q1:       -3204.314805295292
 Quadratic coef:       0.000036771198
 Linear coef   :      -0.000947673141
           Qmin:       -3204.320000288905
Quadratic minimum step length (  0.663143673913) accepted
    Initial Ne1:    2232.00658578
      Final Ne1:    2232.00000000

=================== Penalty functional idempotency correction ==================
 RMS occupancy error at iteration   1:  0.001657 (step -0.5541 Ne1=   2232.0000)
 RMS occupancy error at iteration   2:  0.000933 (step -1.0383 Ne1=   2232.0000)
 RMS occupancy error at iteration   3:  0.000656 (step -0.9934 Ne1=   2232.0000)
            Final RMS occupancy error   :  0.000577 (Ne1=   2232.0000)
               Final occupancy bounds   : [ -0.0011,  1.0009]
================================================================================

    1        -3.204313894393E+03     6.6838E-05     6.6777E-05
      ideal mu1:      -0.343244307101
             Q0:       -3204.316974530576
             G0:      -0.039081262121
   RMS gradient:       0.000070731758
     Trial step:       0.184734169995
             Q1:       -3204.314194878544
 Quadratic coef:       0.009999296552
 Linear coef   :      -0.007219644520
           Qmin:       -3204.318277703922
Quadratic minimum step length (  0.066690443232) accepted
    Initial Ne1:    2231.99164783
      Final Ne1:    2232.00000000

=================== Penalty functional idempotency correction ==================
 RMS occupancy error at iteration   1:  0.000833 (step -0.5274 Ne1=   2232.0000)
 RMS occupancy error at iteration   2:  0.000633 (step -1.6460 Ne1=   2232.0000)
 RMS occupancy error at iteration   3:  0.000548 (step -0.9056 Ne1=   2232.0000)
            Final RMS occupancy error   :  0.000516 (Ne1=   2232.0000)
               Final occupancy bounds   : [ -0.0009,  1.0015]
================================================================================

    2        -3.204316974531E+03     7.0732E-05     6.1136E-05    -3.0801E-03
      ideal mu1:      -0.343247182298
             Q0:       -3204.316116519728
             G0:      -0.046882683385
   RMS gradient:       0.000064483931
     Trial step:       0.110995511968
             Q1:       -3204.315542712286
 Quadratic coef:       0.005777574886
 Linear coef   :      -0.005203767445
           Qmin:       -3204.317288256838
Quadratic minimum step length (  0.049985923427) accepted
    Initial Ne1:    2231.99297168
      Final Ne1:    2232.00000000

=================== Penalty functional idempotency correction ==================
 RMS occupancy error at iteration   1:  0.000797 (step -0.5353 Ne1=   2232.0000)
 RMS occupancy error at iteration   2:  0.000576 (step -1.4052 Ne1=   2232.0000)
 RMS occupancy error at iteration   3:  0.000526 (step -0.9130 Ne1=   2232.0000)
            Final RMS occupancy error   :  0.000504 (Ne1=   2232.0000)
               Final occupancy bounds   : [ -0.0011,  1.0010]
================================================================================

    3        -3.204316116520E+03     6.4484E-05     6.2571E-05     8.5801E-04
      ideal mu1:      -0.343249084484
             Q0:       -3204.315863819952
             G0:      -0.067554891172
   RMS gradient:       0.000065855215
     Trial step:       0.074486328692
             Q1:       -3204.315167328244
 Quadratic coef:       0.005728407537
 Linear coef   :      -0.005031915829
           Qmin:       -3204.316968846818
Quadratic minimum step length (  0.032714932897) accepted
    Initial Ne1:    2231.99389177
      Final Ne1:    2232.00000000

=================== Penalty functional idempotency correction ==================
 RMS occupancy error at iteration   1:  0.000764 (step -0.5442 Ne1=   2232.0000)
 RMS occupancy error at iteration   2:  0.000556 (step -1.3244 Ne1=   2232.0000)
 RMS occupancy error at iteration   3:  0.000515 (step -0.8683 Ne1=   2232.0000)
            Final RMS occupancy error   :  0.000496 (Ne1=   2232.0000)
               Final occupancy bounds   : [ -0.0007,  1.0012]
================================================================================

    4        -3.204315863820E+03     6.5855E-05     6.3002E-05     2.5270E-04
      ideal mu1:      -0.343250354570
    5        -3.204315712445E+03     6.6479E-05     6.3218E-05     1.5137E-04
Finished density kernel iterations (   5)

Writing density kernel to file "C70_in_10-8.dkn" ... done


>>> Density kernel optimised for the current NGWF basis:
     ~~~~~~~~~~~~~~~~~~~~~~~~~~~~~~~~~~~~~~~~~~~~~~~~~~~~~~~~~~~
     Total energy                =  -3.20431571244508E+03  Eh
     Estimated bandgap           =   2.5910E-02  Eh
     RMS occupancy error         =   4.9628E-04
     [H,K] commutator            =   6.3218E-05
     Occupancy bounds            = [ -0.001:  1.001]
     ~~~~~~~~~~~~~~~~~~~~~~~~~~~~~~~~~~~~~~~~~~~~~~~~~~~~~~~~~~~


================================================================================
           ---------------- ENERGY COMPONENTS (Eh) ----------------
           | Kinetic                    :     2329.71840576040358 |
           | Pseudopotential (local)    :   -25774.46616376581005 |
           | Pseudo (non-coul chg cor)  :        0.00000000000000
           | Pseudopotential (non-local):      414.17593583877806 |
           | Hartree                    :    11773.25798267234859 |
           | Exchange-correlation       :     -984.64604685312361 |
           | Ewald                      :     9037.64417390231938 |
           | Total                      :    -3204.31571244508450 |
           --------------------------------------------------------
           ------ LOCAL ENERGY COMPONENTS FROM MATRIX TRACES ------
           | Pseudopotential (local)    :   -25774.46616376581733 |
           | Hartree                    :    11773.25798267235587 |
           --------------------------------------------------------
           Integrated density           :     2231.99999999999818
           Integrated density tr(KS)    :     2231.99999999999909
================================================================================




################################################################################
########################### NGWF CG iteration  006 #############################
################################################################################
****** Reciprocal space K.E. preconditioning with k_zero =  3.0000 a0^-1 *******

>>> Checking for convergence of NGWFs:   NOT CONVERGED
  ========================================================================
         NGWF RMS gradient =  3.0565E-05 >  3.0000E-05  | above tolerance
  ========================================================================

>>> Improving NGWFs using line search:
============ Calculation of NGWF S^-1 using Hotelling algorithm ================ 
         Iteration  |  Frobenius norm and Maximum abs value    (of I-S*S_n^-1)   
               1       0.21045793E+00     0.35846443E-02
               2       0.15665842E-02     0.29540628E-04
               3       0.11393589E-03     0.13223817E-05
               4       0.11393479E-03     0.13223744E-05
               5       0.11393479E-03     0.13223744E-05
================================================================================
============ Calculation of NGWF S^-1 using Hotelling algorithm ================ 
         Iteration  |  Frobenius norm and Maximum abs value    (of I-S*S_n^-1)   
               1       0.14112515E+00     0.25005990E-02
               2       0.74583713E-03     0.14099587E-04
               3       0.14742698E-03     0.16977610E-05
               4       0.14742736E-03     0.16977658E-05
================================================================================
------------------------------- NGWF line search -------------------------------
RMS gradient                =       0.00003056508416
Trial step length           =               0.941637
Gradient along search dir.  =         -0.03495014972
Functional at step 0        =   -3204.31571244508450
Functional at step 1        =   -3204.33839516056833
Functional predicted        =   -3204.34218708235721
Selected quadratic step     =               1.514994
Conjugate gradients coeff.  =               0.515088
--------------------------- NGWF line search finished --------------------------
                                               
Writing NGWFs to file "C70_in_10-8.tightbox_ngwfs"....  done

>>> Optimising kernel for current NGWFs:
   Initial electron number for spin 1:    2231.91111288
     Final electron number for spin 1:    2232.00000000

=================== Penalty functional idempotency correction ==================
 RMS occupancy error at iteration   1:  0.000858 (step -0.5011 Ne1=   2232.0000)
 RMS occupancy error at iteration   2:  0.000494 (step -6.4237 Ne1=   2232.0000)
 RMS occupancy error at iteration   3:  0.000468 (step -0.6571 Ne1=   2232.0000)
            Final RMS occupancy error   :  0.000459 (Ne1=   2232.0000)
               Final occupancy bounds   : [ -0.0004,  1.0013]
================================================================================

................................................................................
<<<<<<<<<<<<<< LNV (Original version) density kernel optimisation >>>>>>>>>>>>>>
~~~~~~~~~~~~~~~~~~~~~~~~~~~~~~~~~~~~~~~~~~~~~~~~~~~~~~~~~~~~~~~~~~~~~~~~~~~~~~~~
   iter  |      energy (Eh)       | rms gradient |  commutator  |   dE (Eh)
      ideal mu1:      -0.343566271827
             Q0:       -3204.339752918455
             G0:      -0.020207362960
   RMS gradient:       0.000070014803
     Trial step:       0.049364108874
             Q1:       -3204.340714824039
 Quadratic coef:       0.000035612881
 Linear coef   :      -0.000997518465
           Qmin:       -3204.346738053237
Quadratic minimum step length (  0.691345505638) accepted
    Initial Ne1:    2231.89340593
      Final Ne1:    2232.00000000

=================== Penalty functional idempotency correction ==================
 RMS occupancy error at iteration   1:  0.001677 (step -0.5382 Ne1=   2232.0000)
 RMS occupancy error at iteration   2:  0.000956 (step -1.0978 Ne1=   2232.0000)
 RMS occupancy error at iteration   3:  0.000657 (step -1.0592 Ne1=   2232.0000)
            Final RMS occupancy error   :  0.000573 (Ne1=   2232.0000)
               Final occupancy bounds   : [ -0.0008,  1.0010]
================================================================================

    1        -3.204339752918E+03     7.0015E-05     6.9104E-05
      ideal mu1:      -0.343485257269
             Q0:       -3204.343467103898
             G0:      -0.034316587103
   RMS gradient:       0.000068597335
     Trial step:       0.184736717546
             Q1:       -3204.343547498022
 Quadratic coef:       0.006259139535
 Linear coef   :      -0.006339533659
           Qmin:       -3204.345072343995
Quadratic minimum step length (  0.093554763588) accepted
    Initial Ne1:    2231.96424642
      Final Ne1:    2232.00000000

=================== Penalty functional idempotency correction ==================
 RMS occupancy error at iteration   1:  0.000912 (step -0.5109 Ne1=   2232.0000)
 RMS occupancy error at iteration   2:  0.000659 (step -1.6626 Ne1=   2232.0000)
 RMS occupancy error at iteration   3:  0.000554 (step -1.0009 Ne1=   2232.0000)
            Final RMS occupancy error   :  0.000517 (Ne1=   2232.0000)
               Final occupancy bounds   : [ -0.0008,  1.0012]
================================================================================

    2        -3.204343467104E+03     6.8597E-05     6.0971E-05    -3.7142E-03
      ideal mu1:      -0.343478791834
             Q0:       -3204.342704661712
             G0:      -0.042296664535
   RMS gradient:       0.000063145881
     Trial step:       0.131464823949
             Q1:       -3204.345236743991
 Quadratic coef:       0.003028441277
 Linear coef   :      -0.005560523557
           Qmin:       -3204.345257082198
Quadratic minimum step length (  0.120691336483) accepted
    Initial Ne1:    2231.95356611
      Final Ne1:    2232.00000000

=================== Penalty functional idempotency correction ==================
 RMS occupancy error at iteration   1:  0.001158 (step -0.5359 Ne1=   2232.0000)
 RMS occupancy error at iteration   2:  0.000703 (step -1.2118 Ne1=   2232.0000)
 RMS occupancy error at iteration   3:  0.000584 (step -0.9747 Ne1=   2232.0000)
            Final RMS occupancy error   :  0.000538 (Ne1=   2232.0000)
               Final occupancy bounds   : [ -0.0014,  1.0012]
================================================================================

    3        -3.204342704662E+03     6.3146E-05     6.2421E-05     7.6244E-04
      ideal mu1:      -0.343478690468
             Q0:       -3204.343076132411
             G0:      -0.068022567787
   RMS gradient:       0.000066795178
     Trial step:       0.125962952105
             Q1:       -3204.341594199245
 Quadratic coef:       0.010050256614
 Linear coef   :      -0.008568323448
           Qmin:       -3204.344902358584
Quadratic minimum step length (  0.053694714351) accepted
    Initial Ne1:    2231.97113488
      Final Ne1:    2232.00000000

=================== Penalty functional idempotency correction ==================
 RMS occupancy error at iteration   1:  0.000953 (step -0.5429 Ne1=   2232.0000)
 RMS occupancy error at iteration   2:  0.000645 (step -1.3175 Ne1=   2232.0000)
 RMS occupancy error at iteration   3:  0.000560 (step -0.8908 Ne1=   2232.0000)
            Final RMS occupancy error   :  0.000525 (Ne1=   2232.0000)
               Final occupancy bounds   : [ -0.0005,  1.0011]
================================================================================

    4        -3.204343076132E+03     6.6795E-05     6.1729E-05    -3.7147E-04
      ideal mu1:      -0.343482123290
    5        -3.204342904973E+03     6.6538E-05     6.1891E-05     1.7116E-04
Finished density kernel iterations (   5)

Writing density kernel to file "C70_in_10-8.dkn" ... done


>>> Density kernel optimised for the current NGWF basis:
     ~~~~~~~~~~~~~~~~~~~~~~~~~~~~~~~~~~~~~~~~~~~~~~~~~~~~~~~~~~~
     Total energy                =  -3.20434290497330E+03  Eh
     Estimated bandgap           =   2.5188E-02  Eh
     RMS occupancy error         =   5.2481E-04
     [H,K] commutator            =   6.1891E-05
     Occupancy bounds            = [ -0.001:  1.001]
     ~~~~~~~~~~~~~~~~~~~~~~~~~~~~~~~~~~~~~~~~~~~~~~~~~~~~~~~~~~~




################################################################################
########################### NGWF CG iteration  007 #############################
################################################################################
****** Reciprocal space K.E. preconditioning with k_zero =  3.0000 a0^-1 *******

>>> Checking for convergence of NGWFs: 
           ........................................................
           |         *** NGWF optimisation converged ***          |
           | RMS NGWF gradient =    0.00002354152813              |
           | Criteria satisfied:                                  |
           | -> RMS NGWF gradient lower than set threshold.       |
           ========================================================

================================================================================
           ---------------- ENERGY COMPONENTS (Eh) ----------------
           | Kinetic                    :     2329.37345623994861 |
           | Pseudopotential (local)    :   -25774.45343102233892 |
           | Pseudo (non-coul chg cor)  :        0.00000000000000
           | Pseudopotential (non-local):      414.90834937642222 |
           | Hartree                    :    11772.75082337992717 |
           | Exchange-correlation       :     -984.56627684957789 |
           | Ewald                      :     9037.64417390231938 |
           | Total                      :    -3204.34290497329857 |
           --------------------------------------------------------
           ------ LOCAL ENERGY COMPONENTS FROM MATRIX TRACES ------
           | Pseudopotential (local)    :   -25774.45343102234983 |
           | Hartree                    :    11772.75082337992717 |
           --------------------------------------------------------
           Integrated density           :     2231.99999999999909
           Integrated density tr(KS)    :     2232.00000000000000
================================================================================


[...]
 C   175 -- C   208       -0.08      5.36496
 C   155 -- C   188       -0.08      5.36496
 C   259 -- C   292       -0.08      5.36496
 C   409 -- C   411       -0.08      5.36496
 C   358 -- C   361       -0.08      5.36496
 C   118 -- C   121       -0.08      5.36496
 C   206 -- C   209       -0.08      5.36496
 C   187 -- C   220       -0.08      5.36496
 C    76 -- C   104       -0.08      5.36496
 C    75 -- C    78       -0.08      5.36496
 C   143 -- C   176       -0.08      5.36496
 C   238 -- C   241       -0.08      5.36496
 C   106 -- C   109       -0.08      5.36496
 C   199 -- C   232       -0.08      5.36496
 C    33 -- C    51       -0.08      5.36496
 C    28 -- C    31       -0.08      5.36496
 C   215 -- C   248       -0.08      5.36496
 C   424 -- C   427       -0.08      5.36496
 C   103 -- C   136       -0.08      5.36496
 C   211 -- C   244       -0.08      5.36496
 C   218 -- C   221       -0.08      5.36496
 C   191 -- C   224       -0.08      5.36496
 C   134 -- C   137       -0.08      5.36496
 C   251 -- C   284       -0.08      5.36496
 C    49 -- C    52       -0.08      5.36496
 C   392 -- C   395       -0.08      5.36496
 C   385 -- C   410       -0.08      5.36496
 C   314 -- C   317       -0.08      5.36496
 C    63 -- C   462       -0.08      5.36496
 C    62 -- C    85       -0.08      5.36496
 C   126 -- C   129       -0.08      5.36496
 C   122 -- C   125       -0.08      5.36496
 C    57 -- C    60       -0.08      5.36496
 C   466 -- C   474       -0.08      5.36496
 C   444 -- C   447       -0.08      5.36496
 C   247 -- C   280       -0.08      5.36496
 C   242 -- C   245       -0.08      5.36496
 C   110 -- C   113       -0.08      5.36496
 C   429 -- C   450       -0.08      5.36496
 C   315 -- C   348       -0.08      5.36496
 C   311 -- C   344       -0.08      5.36496
 C   310 -- C   313       -0.08      5.36496
 C   290 -- C   293       -0.08      5.36496
 C   283 -- C   316       -0.08      5.36496
 C    24 -- C    27       -0.08      5.36496
 C   239 -- C   272       -0.08      5.36496
 C    46 -- C    69       -0.08      5.36496
 C   183 -- C   216       -0.08      5.36496
 C   389 -- C   414       -0.08      5.36496
 C    32 -- C    35       -0.08      5.36496
 C   306 -- C   309       -0.08      5.36496
 C   295 -- C   328       -0.08      5.36496
 C    29 -- C    47       -0.08      5.36496
 C   114 -- C   117       -0.08      5.36496
 C    50 -- C    73       -0.08      5.36496
 C    45 -- C    48       -0.08      5.36496
 C    91 -- C    94       -0.08      5.36496
 C   186 -- C   189       -0.08      5.36496
 C   179 -- C   212       -0.08      5.36496
 C   291 -- C   324       -0.08      5.36496
 C   250 -- C   253       -0.08      5.36496
 C   381 -- C   408       -0.08      5.36496
 C   343 -- C   375       -0.08      5.36496
 C   327 -- C   360       -0.08      5.36496
 C   279 -- C   312       -0.08      5.36496
 C   274 -- C   277       -0.08      5.36496
 C   254 -- C   257       -0.08      5.36496
 C    11 -- C    14       -0.08      5.36496
 C   210 -- C   213       -0.08      5.36496
 C    41 -- C    59       -0.08      5.36496
 C   178 -- C   181       -0.08      5.36496
 C    80 -- C   108       -0.08      5.36496
 C     8 -- C    13       -0.08      5.36496
 C   334 -- C   337       -0.08      5.36496
 C   330 -- C   333       -0.08      5.36496
 C    72 -- C   100       -0.08      5.36496
 C     3 -- C     6       -0.08      5.36496
 C    58 -- C    81       -0.08      5.36496
 C    25 -- C    43       -0.08      5.36496
 C    53 -- C    56       -0.08      5.36496
 C   449 -- C   463       -0.08      5.36496
 C   380 -- C   383       -0.08      5.36496
 C   170 -- C   173       -0.08      5.36496
 C     2 -- C     5       -0.08      5.36496
 C   147 -- C   180       -0.08      5.36496
 C   130 -- C   376       -0.08      5.36496
 C   237 -- C   456       -0.08      5.36496
 C   480 -- C   483       -0.08      5.36496
 C    98 -- C   101       -0.08      5.36496
 C   445 -- C   459       -0.08      5.36496
 C   432 -- C   435       -0.08      5.36496
 C    88 -- C   116       -0.08      5.36496
 C   166 -- C   169       -0.08      5.36496
 C   347 -- C   378       -0.08      5.36496
 C   139 -- C   172       -0.08      5.36496
 C   294 -- C   297       -0.08      5.36496
 C   135 -- C   168       -0.08      5.36496
 C   243 -- C   276       -0.08      5.36496
 C   107 -- C   140       -0.08      5.36496
 C   226 -- C   229       -0.08      5.36496
 C   416 -- C   419       -0.08      5.36496
 C   346 -- C   349       -0.08      5.36496
 C   342 -- C   345       -0.08      5.36496
 C    65 -- C   475       -0.08      5.36496
 C   457 -- C   471       -0.08      5.36496
 C   202 -- C   205       -0.08      5.36496
 C   371 -- C   402       -0.08      5.36496
 C   171 -- C   204       -0.08      5.36496
 C     7 -- C     9       -0.08      5.36496
 C    16 -- C    26       -0.08      5.36496
 C   282 -- C   285       -0.08      5.36496
 C    54 -- C    77       -0.08      5.36496
 C   102 -- C   105       -0.08      5.36496
 C    87 -- C    90       -0.08      5.36496
 C   303 -- C   336       -0.08      5.36496
 C   223 -- C   256       -0.08      5.36496
 C   377 -- C   379       -0.08      5.36496
 C   359 -- C   390       -0.08      5.36496
 C   413 -- C   436       -0.08      5.36496
 C    92 -- C   120       -0.08      5.36496
 C    67 -- C    70       -0.08      5.36496
 C   278 -- C   281       -0.08      5.36496
 C   266 -- C   269       -0.08      5.36496
 C    99 -- C   132       -0.08      5.36496
 C   448 -- C   451       -0.08      5.36496
 C   440 -- C   443       -0.08      5.36496
 C   417 -- C   438       -0.08      5.36496
 C   405 -- C   430       -0.08      5.36496
 C    19 -- C    21       -0.08      5.36496
 C   354 -- C   357       -0.08      5.36496
 C   146 -- C   149       -0.08      5.36496
 C   273 -- C   473       -0.08      5.36496
 C   476 -- C   479       -0.08      5.36496
 C   194 -- C   197       -0.08      5.36496
 C   366 -- C   369       -0.08      5.36496
 C   227 -- C   260       -0.08      5.36496
 C   412 -- C   415       -0.08      5.36496
 C   465 -- C   468       -0.08      5.36496
 C   351 -- C   382       -0.08      5.36496
 C    71 -- C    74       -0.08      5.36496
 C   318 -- C   321       -0.08      5.36496
 C   207 -- C   240       -0.08      5.36496
 C   307 -- C   488       -0.08      5.36496
 C   302 -- C   305       -0.08      5.36496
 C   263 -- C   296       -0.08      5.36496
 C   119 -- C   152       -0.08      5.36496
 C   222 -- C   225       -0.08      5.36496
 C   461 -- C   464       -0.08      5.36496
 C   195 -- C   228       -0.08      5.36496
 C   174 -- C   177       -0.08      5.36496
 C   362 -- C   365       -0.08      5.36496
 C    79 -- C    82       -0.08      5.36496
 C   350 -- C   353       -0.08      5.36496
 C    37 -- C    55       -0.08      5.36496
 C   319 -- C   352       -0.08      5.36496
 C    68 -- C   340       -0.08      5.36496
 C   138 -- C   141       -0.08      5.36496
 C   388 -- C   391       -0.08      5.36496
 C   128 -- C   487       -0.08      5.36496
 C   246 -- C   249       -0.08      5.36496
 C   182 -- C   185       -0.08      5.36496
 C   363 -- C   394       -0.08      5.36496
 C   326 -- C   329       -0.08      5.36496
 C   150 -- C   153       -0.08      5.36496
 C   299 -- C   332       -0.08      5.36496
 C    36 -- C    39       -0.08      5.36496
 C   287 -- C   320       -0.08      5.36496
 C    23 -- C   234       -0.08      5.36496
 C   331 -- C   364       -0.08      5.36496
 C   428 -- C   431       -0.08      5.36496
 C   262 -- C   265       -0.08      5.36496
 C   453 -- C   467       -0.08      5.36496
 C   203 -- C   458       -0.08      5.36496
 C   452 -- C   455       -0.08      5.36496
 C   433 -- C   454       -0.08      5.36496
 C    66 -- C    89       -0.08      5.36496
 C   335 -- C   368       -0.08      5.36496
 C   267 -- C   300       -0.08      5.36496
 C   131 -- C   406       -0.08      5.36496
 C   230 -- C   233       -0.08      5.36496
 C   298 -- C   301       -0.08      5.36496
 C     1 -- C   164       -0.08      5.36496
 C   231 -- C   264       -0.08      5.36496
 C    12 -- C   236       -0.08      5.36496
 C    97 -- C   338       -0.08      5.36496
 C    42 -- C   304       -0.08      5.36496
 C    44 -- C   270       -0.08      5.36496
 C   167 -- C   434       -0.08      5.36496
 C   341 -- C   486       -0.08      5.36496
 C     4 -- C   200       -0.08      5.36496
 C   339 -- C   372       -0.08      5.36496
 C   271 -- C   482       -0.08      5.36496
 C   133 -- C   374       -0.08      5.36496
 C    93 -- C   531       -0.05      5.37291
 C   261 -- C   535       -0.05      5.37400
 C   295 -- C   501       -0.06      5.38367
 C   475 -- C   521       -0.05      5.38625
 C   297 -- C   536       -0.05      5.38865
 C   367 -- C   503       -0.06      5.40034
 C   476 -- C   521       -0.04      5.42185
 C   426 -- C   489       -0.05      5.43507
 C   450 -- C   510       -0.03      5.44889
 C   427 -- C   504       -0.07      5.45013
 C   226 -- C   535       -0.05      5.45101
 C   398 -- C   504       -0.08      5.45149
 C   264 -- C   546       -0.06      5.45560
 C   159 -- C   556       -0.05      5.45579
 C   123 -- C   544       -0.06      5.46000
 C   294 -- C   515       -0.04      5.47009
 C   447 -- C   507       -0.07      5.47575
 C   369 -- C   514       -0.05      5.47772
 C   160 -- C   553       -0.04      5.50762
 C   428 -- C   509       -0.05      5.51361
 C   367 -- C   502       -0.04      5.52203
 C   261 -- C   536       -0.05      5.52822
 C   399 -- C   493       -0.06      5.52954
 C   122 -- C   544       -0.06      5.54042
 C   300 -- C   548       -0.03      5.54120
 C   448 -- C   506       -0.07      5.54424
 C   159 -- C   549       -0.05      5.55656
 C   397 -- C   493       -0.04      5.56645
 C   125 -- C   553       -0.03      5.56745
 C   229 -- C   546       -0.05      5.57404
 C   156 -- C   544       -0.04      5.57622
 C    91 -- C   532       -0.04      5.58201
 C   364 -- C   502       -0.05      5.58572
 C   332 -- C   515       -0.05      5.59013
 C   227 -- C   550       -0.04      5.59476
 C   400 -- C   505       -0.06      5.59523
 C   402 -- C   514       -0.04      5.60156
 C   332 -- C   526       -0.04      5.61088
 C   124 -- C   543       -0.04      5.61263
 C   365 -- C   493       -0.07      5.61726
 C   124 -- C   532       -0.04      5.61916
 C   466 -- C   521       -0.04      5.62912
 C   401 -- C   513       -0.05      5.63091
 C   363 -- C   503       -0.07      5.63675
 C   466 -- C   522       -0.03      5.64379
 C   424 -- C   507       -0.06      5.64406
 C   426 -- C   503       -0.04      5.64477
 C   331 -- C   501       -0.06      5.66894
==================================================


=================== Orbital energy and occupancy information ===================

      Total number of orbitals:    2232
   Number of occupied orbitals:    1116.000000000
   Occupancy sum (eigenvalues):    1116.000000000
                 HOMO-LUMO gap:       0.020666982 Eh
                 Mid-gap level:      -0.007046812 Eh

                        Orbital | Energy (Eh) | Occupancy
                            1    -0.761534172   0.9995435
                        .......   ...........   .........
                         1107    -0.039741062   0.9709593
                         1108    -0.038918643   0.9820903
                         1109    -0.035079528   0.9981147
                         1110    -0.031308351   0.9985454
                         1111    -0.030010599   0.9975240
                         1112    -0.028037121   0.9977859
                         1113    -0.025991450   0.9977172
                         1114    -0.023585169   0.9994511
                         1115    -0.018544209   0.9970852
                         1116    -0.017380303   0.9976356
                        .......   --- gap ---   .........
                         1117     0.003286679   0.0016991
                         1118     0.003438781   0.0005763
                         1119     0.011994305   0.0019200
                         1120     0.013512074   0.0010362
                         1121     0.020254547   0.0047289
                         1122     0.021997714   0.0092907
                         1123     0.024059931   0.0282022
                         1124     0.025394395   0.0205813
                         1125     0.027950665   0.0022220
                         1126     0.032404941   0.0083963
                        .......   ...........   .........
                         2232     0.901350041   0.0000010

================================================================================

===================== Writing canonical molecular orbitals =====================
| Orbital  Energy (eV)  Norm     |
| HOMO-5   -0.81662995  1.000000 | Writing "C70_in_10-8_HOMO-5.cube" ... done
| HOMO-4   -0.76292889  1.000000 | Writing "C70_in_10-8_HOMO-4.cube" ... done
| HOMO-3   -0.70726334  1.000000 | Writing "C70_in_10-8_HOMO-3.cube" ... done
| HOMO-2   -0.64178512  1.000000 | Writing "C70_in_10-8_HOMO-2.cube" ... done
| HOMO-1   -0.50461362  1.000000 | Writing "C70_in_10-8_HOMO-1.cube" ... done
| HOMO     -0.47294211  1.000000 | Writing "C70_in_10-8_HOMO.cube" ... done
| LUMO      0.08943509  1.000000 | Writing "C70_in_10-8_LUMO.cube" ... done
| LUMO+1    0.09357399  1.000000 | Writing "C70_in_10-8_LUMO+1.cube" ... done
| LUMO+2    0.32638165  1.000000 | Writing "C70_in_10-8_LUMO+2.cube" ... done
| LUMO+3    0.36768225  1.000000 | Writing "C70_in_10-8_LUMO+3.cube" ... done
| LUMO+4    0.55115428  1.000000 | Writing "C70_in_10-8_LUMO+4.cube" ... done
| LUMO+5    0.59858826  1.000000 | Writing "C70_in_10-8_LUMO+5.cube" ... done
================================================================================
 
===================== Density of States (DOS) calculation ======================
Writing "C70_in_10-8_DOS.txt" ...  done
================================================================================
 
Writing bands to file "C70_in_10-8.val_bands" ... done

------------------------------ TIMING INFORMATION ------------------------------
AVERAGE TIME:     464.994s on     90 proc(s)                                    
TOTAL TIME:       464.997s on     90 proc(s)                                    
================= AVERAGE TIMINGS FROM ALL PROCS (CUMULATIVE) ==================
|| TAG                                    #calls    cpu time   %total  Gflops ||
|| onetep.F90 main loop imbalance       :     1        0.00s   0.000%  ------ ||
|| sparse_spam3toblacs_real_fast_imbal  :     3        0.00s   0.000%  ------ ||
|| onetep.F90 final imbalance           :     1        0.00s   0.000%  ------ ||
|| sparse_spam3toblacs_real_fast_B2     :   270        0.00s   0.001%  ------ ||
|| sparse_set_to_garbage                :    76        0.00s   0.001%  ------ ||
|| pseudopotentials_local_on_grid       :     1        0.01s   0.001%  ------ ||
|| basis_extract_function_from_box      :   347        0.01s   0.003%  ------ ||
|| sparse_spam3toblacs_real_fast_B1     :   270        0.07s   0.014%  ------ ||
|| sparse_spam3toblacs_real_fast        :     3        0.08s   0.016%  ------ ||
|| ngwfs_initialise_from_radial         :     1        0.08s   0.017%  ------ ||
|| pseudo_make_structure_factor         :     1        0.12s   0.025%  ------ ||
|| pseudopotentials_nonlocal_mat        :    13        0.21s   0.046%  ------ ||
|| energy_and_force_init_cell           :     1        0.25s   0.053%  ------ ||
|| restart_kernel_write                 :     8        0.26s   0.057%  ------ ||
|| density_init_guess_real              :     1        0.27s   0.057%  ------ ||
|| dense_eigensolve                     :     1        0.34s   0.074%  ------ ||
|| projectors_init_fftbox_recip         :    27        0.40s   0.086%  ------ ||
|| hartree_on_grid_single               :    74        0.41s   0.088%  ------ ||
|| sparse_init                          :     1        0.54s   0.116%  ------ ||
|| ewald_calculate_energy               :     1        0.76s   0.163%  ------ ||
|| fourier_apply_cell_backward          :   367        1.08s   0.233% 107.828 ||
|| fourier_apply_cell_forward           :   366        1.16s   0.250% 100.197 ||
|| ngwf_gradient_coeffs                 :     7        1.46s   0.315%  ------ ||
|| palser_mano_kernel_optimise          :     1        1.49s   0.321%  ------ ||
|| basis_copy_function_to_box           :  3620        1.84s   0.397%  ------ ||
|| xc_energy_potential                  :    73        2.19s   0.470%  ------ ||
|| projectors_func_ovlp_box_spam3       :    13        2.22s   0.477%  ------ ||
|| fourier_apply_box_pair               :   508        2.37s   0.510%  1.026k ||
|| sparse_embed_hotelling_invert_embed  :    13        2.59s   0.558%  ------ ||
|| restart_ngwfs_tightbox_output        :     6        3.19s   0.686%  ------ ||
|| eigenstates_calculate                :     1        3.83s   0.824%  ------ ||
|| function_ops_brappd_ketppd_spam3     :    13        3.89s   0.836%  ------ ||
|| kernel_purify                        :   112        5.78s   1.244%  ------ ||
|| projectors_gradient_batch            :    14        6.43s   1.382%  ------ ||
|| sparse_trace                         :  2274        7.90s   1.698%  ------ ||
|| lnv_gradient_norm                    :    35        8.40s   1.807%  ------ ||
|| cell_grid_extract_box_real           :  1359        8.62s   1.854%  ------ ||
|| basis_dot_function_with_box          : 598.9k      11.51s   2.476%  ------ ||
|| integrals_kinetic_spam3              :    13       11.93s   2.566%  ------ ||
|| cell_grid_deposit_box_real           :  2415       14.68s   3.156%  ------ ||
|| hamiltonian_energy_components        :     2       15.37s   3.306%  ------ ||
|| properties_calculate                 :     1       18.41s   3.960%  ------ ||
|| density_fftbox_deposit_to_cell       :  2072       22.65s   4.870%  ------ ||
|| kernel_fix                           :    35       23.66s   5.089%  ------ ||
|| ngwf_gradient_build_batch            :    14       30.46s   6.551%  ------ ||
|| basis_add_function_to_box            : 1.259M      32.86s   7.067%  ------ ||
|| integrals_locpot_mat_els_batch       :    82       33.11s   7.120%  ------ ||
|| sparse_product                       :  2261       42.69s   9.180%  ------ ||
|| density_batch_row_sums               :   148       49.49s  10.644%  ------ ||
|| fourier_apply_box                    :  7161       66.78s  14.363%  2.405k ||
|| potential_apply_to_ngwf_batch        :    82       73.78s  15.866%  ------ ||
|| ngwf_gradient_batch                  :    14       74.03s  15.920%  ------ ||
|| density_fftbox_interpolate_multiply  :  2072       74.86s  16.099%  ------ ||
|| ngwf_gradient_lnv                    :     7       79.64s  17.128%  ------ ||
|| integrals_locpot_dbl_grid            :    41      107.14s  23.042%  ------ ||
|| density_batch_interp_deposit         :   148      123.08s  26.469%  ------ ||
|| hamiltonian_lhxc_calculate           :    70      176.61s  37.981%  ------ ||
|| density_on_dbl_grid                  :    74      180.00s  38.711%  ------ ||
|| lnv_denskernel_optimise_cg           :     7      297.85s  64.055%  ------ ||
|| ngwf_cg_optimise                     :     1      436.81s  93.939%  ------ ||
|| energy_and_forces                    :     1      463.90s  99.764%  ------ ||
|| total_time                           :     1      464.99s 100.000%  ------ ||
================================================================================
Overhead of generating timer report: 
- 0 ms averaging over threads,
- 6 ms ensuring consistency across MPI ranks,
- 0 ms printing in order.

Job completed: 11-07-2023 15:48 (+0200)

onetep_launcher: ONETEP seems to have finished correctly (zero exit code).
