 +---------------------------------------------------------------+
 |                                                               |
 |        ####### #     # ####### ####### ####### ######         |
 |        #     # ##    # #          #    #       #     #        |
 |        #     # # #   # #          #    #       #     #        |
 |        #     # #  #  # #####      #    #####   ######         |
 |        #     # #   # # #          #    #       #              |
 |        #     # #    ## #          #    #       #              |
 |        ####### #     # #######    #    ####### #              |
 |                                                               |
 |        Linear-Scaling Ab Initio Total Energy Program          |
 |                                                               |
 |          Release for academic collaborators of ODG            |
 |                                             Version 6.1.42    |
 | Remote: git@bitbucket.org:onetep/onetep.git                   |
 | Local branch: master                                          |
 | Commit ID: 4cefaa73311a3a61de2d52f4ca3314cc5ea1ac48           |
 | Date: Tue May 30 09:39:41 2023 +0000                          |
 | Working tree clean                                            |
 |                                                               |
 +---------------------------------------------------------------+
 |                                                               |
 |  Authors:                                                     |
 |  Jacek Dziedzic, Peter D. Haynes, Nicholas D. M. Hine,        |
 |  Arash A. Mostofi, Mike C. Payne and Chris-Kriton Skylaris    |
 |                                                               |
 |  Contributors:                                                |
 |  J. Aarons, L. Andrinopoulos, P. W. Avraam, R. A. Bell,       |
 |  A. Bhandari, G. A. Bramley, R. J. Charlton, S. J. Clark,     |
 |  R. J. Clements, G. C. Constantinescu, F. Corsetti,           |
 |  N. Corsini, O. Dieguez, S. M. M. Dubois, K. K. B. Duff,      |
 |  J. M. Escartin, M. Escobar Azor, A. Greco,                   |
 |  H. Helal, Q. O. Hill, L. P. Lee, J.-H. Li,                   |
 |  E. B. Linscott, G. Moynihan, D. D. O`Regan,                  |
 |  O. K. Okan, M. J. S. Phipps, C. J. Pickard,                  |
 |  J. C. A. Prentice, M. I. J. Probert, L. E. Ratcliff,         |
 |  M. Robinson, A. Ruiz Serrano, M. dos Santos Dias,            |
 |  J. S. Spencer, E. W. Tait, G. Teobaldi, D. Turban,           |
 |  V. Vitale, K. A. Wilkinson, C. Weber, J. C. Womack,          |
 |  N. Yeung and T. J. Zuehlsdorff                               |
 |                                                               |
 |                                   Copyright (c) 2004-2023     |
 |                                                               |
 |  Please cite:                                                 |
 |  "The ONETEP linear-scaling density functional theory program"|
 |   J. Chem. Phys. 152(17) 174111 (2020)                        |
 |                                                               |
 |          in all publications arising from your use of ONETEP. |
 |                                                               |
 +---------------------------------------------------------------+
 |                                                               |
 |   ONETEP is based on developments described in the following  |
 |   publications:                                               |
 |                                                               |
 |  "Nonorthogonal generalized Wannier function pseudopotential  |
 |   plane-wave method".                                         |
 |   C.-K. Skylaris, A. A. Mostofi, P. D. Haynes, O. Dieguez,    |
 |   M. C. Payne.                                                |
 |   Phys. Rev. B 66 035119 (2002).                              |
 |                                                               |
 |  "Preconditioned iterative minimization for linear-scaling    |
 |   electronic structure calculations".                         |
 |   A. A. Mostofi, P. D. Haynes, C.-K. Skylaris, M. C. Payne.   |
 |   J. Chem. Phys. 119(17), pp.8842-8848 (2003).                |
 |                                                               |
 |  "Total-energy calculations on a real space grid with         |
 |   localized functions and a plane-wave basis".                |
 |   A. A. Mostofi, C.-K. Skylaris, P. D. Haynes, M. C. Payne.   |
 |   Comput. Phys. Commun. 147, pp.788-802 (2002).               |
 |                                                               |
 |  "Accurate kinetic energy evaluation in electronic structure  |
 |   calculations with localized functions on real space grids"  |
 |   C.-K. Skylaris, A. A. Mostofi, P. D. Haynes, C. J. Pickard, |
 |   M. C. Payne.                                                |
 |   Comput. Phys. Commun. 140, pp.315-322 (2001).               |
 |                                                               |
 |  "Accurate ionic forces and geometry optimization in linear-  |
 |   scaling density-functional theory with local orbitals"      |
 |   N. D. M. Hine, M. Robinson, P. D. Haynes, C.-K. Skylaris,   |
 |   M. C. Payne, and A. A. Mostofi.                             |
 |   Phys. Rev. B 83 195102 (2011).                              |
 |                                                               |
 +---------------------------------------------------------------+

Job started: 21-08-2023 10:37 (+0100)
 
Reading parameters from file "ribbon.dat" ...... done

If your calculation crashes here, before "Checking processes and threads..."
is displayed, then your stack size is insufficient.
If so, use "ulimit -s unlimited" at runtime.
You can disable this check with "check_stack_size F".

Checking processes and threads...
      Default threads: 1
   Running with 8 MPI processes.
   There are 8 MPI processes running on the same node as the root process.
   Each MPI process is using: 
               1 threads for simulation cell FFTs.
               1 threads for parallel FFT box operations.
               1 threads for loops over batched FFT box operations.
               1 threads in other parallel regions.
   MPI Interface: S2 (use mpi) (-DMPI, no -DUSE_MPI_F08, no -DUSE_INCLUDE_MPIF).
   MPI_ASYNC_PROTECTS_NONBLOCKING:  No. MPI_SUBARRAYS_SUPPORTED:  No.
... done

Basic input checks...... done

Reading geometry and species blocks from file "ribbon.dat" ...
  <species_atomic_set> block not found: NGWF initialisation set to SOLVE
... done
 Writing xyz coordinates to file "ribbon.xyz" ... done


--------------------------------------------------------------------------------
---------------------------------- INPUT FILE ----------------------------------
--------------------------------------------------------------------------------

TASK: SinglePoint COND LR_TDDFT                                                 
XC_FUNCTIONAL: PBE                                                              
do_properties: T                                                                
cutoff_energy: 600 eV                                                           
write_xyz: T                                                                    
cond_num_states: 12                                                             
cond_num_extra_states: 8                                                        
cond_num_extra_its: 5                                                           
lr_tddft_num_states: 8                                                          
lr_tddft_write_densities: T                                                     
lr_tddft_cg_threshold: 1e-4                                                     
%block lattice_cart                                                             
30.00 0.0   0.0                                                                 
0.0   24.0  0.0                                                                 
0.0   0.0  37.232                                                               
%endblock lattice_cart                                                          
%block species                                                                  
C C 6 4 8.0                                                                     
H H 1 1 8.0                                                                     
%endblock species                                                               
%block species_pot                                                              
C "/home/theory/phsmea/soft/onetep/pseudo/carbon.recpot"                        
H "/home/theory/phsmea/soft/onetep/pseudo/hydrogen.recpot"                      
%endblock species_pot                                                           
%block species_cond                                                             
C C 6 4 10.0                                                                    
H H 1 1 10.0                                                                    
%endblock species_cond                                                          
%block positions_abs                                                            
     Hash =  -000003218663241800715530
%endblock positions_abs                                                         

--------------------------------------------------------------------------------
-------------------------------- END INPUT FILE --------------------------------
--------------------------------------------------------------------------------


 
<<<<<<<<<<<<<<<<<<<<<<<<<<<<<<<<< Full system >>>>>>>>>>>>>>>>>>>>>>>>>>>>>>>>>>
<<<<<<<<<<<<<<<<<<<<<<<<< Pseudopotential information >>>>>>>>>>>>>>>>>>>>>>>>>>
File: /home/theory/phsmea/soft/onetep/pseudo/carbon.recpot [ 2001 points up to Gmax=  52.9 (1/bohr)]
  Atomic number:  6;  ionic charge:  4.000000
    Shell 1: l = 0; rc = 1.48 bohr
File: /home/theory/phsmea/soft/onetep/pseudo/hydrogen.recpot [ 2001 points up to Gmax=  52.9 (1/bohr)]
  Atomic number:  1;  ionic charge:  1.000000
    Local potential
<<<<<<<<<<<<<<<<<<<<<<<<<<<<<<<<<<<<<<<<>>>>>>>>>>>>>>>>>>>>>>>>>>>>>>>>>>>>>>>>

-------------------------- Atom counting information ---------------------------
Symbol    Natoms  Nvalngwfs Ncondngwfs  Nprojs
  C         32       128       128        32
  H         16        16        16         0
.......   ......    ......    ......    ......
Totals:     48       144       144        32
--------------------------------------------------------------------------------

=============================== PSINC grid sizes ===============================
                      Simulation cell:   55 x  45 x  63
                              FFT-box:   55 x  45 x  63
                                  PPD:    5 x   5 x   1
Grid space d1=  0.545454545455a0 (KE cutoff=  25.53212Eh = 694.76433eV)
Grid space d2=  0.533333333333a0 (KE cutoff=  26.70586Eh = 726.70339eV)
Grid space d3=  0.590984126984a0 (KE cutoff=  21.74965Eh = 591.83822eV)
================================================================================

********************* Fourier parallelisation information **********************
       Coarse grid (whole simulation cell) dimensions:     55    45    63
          Real-space ('12') slabs/proc (min max mean):      7     8     7
         Recip-space ('23') slabs/proc (min max mean):      3     4     3
********************************************************************************

********************* Fourier parallelisation information **********************
       Double grid (whole simulation cell) dimensions:    110    90   126
          Real-space ('12') slabs/proc (min max mean):     15    16    15
         Recip-space ('23') slabs/proc (min max mean):      7     7     7
********************************************************************************

Atom SCF Calculation for C  : Z (AE atom) =   6 : Z (PS atom) =   4
Config String:
Orbitals (num,occ):  2     2.00 2.00
Orbitals   (num,l):  2        0    1
Atom SCF converged after  19 iterations to a total energy of     -5.39730916

Atom SCF Calculation for H  : Z (AE atom) =   1 : Z (PS atom) =   1
Config String:
Orbitals (num,occ):  1     1.00
Orbitals   (num,l):  1        0
Atom SCF converged after  18 iterations to a total energy of     -0.45733103

Atom SCF Calculation for C  : Z (AE atom) =   6 : Z (PS atom) =   4
Config String:
Orbitals (num,occ):  2     2.00 2.00
Orbitals   (num,l):  2        0    1
Atom SCF converged after  19 iterations to a total energy of     -5.40064701

Atom SCF Calculation for H  : Z (AE atom) =   1 : Z (PS atom) =   1
Config String:
Orbitals (num,occ):  1     1.00
Orbitals   (num,l):  1        0
Atom SCF converged after  18 iterations to a total energy of     -0.45849885

Determining parallel strategy ...... done
Calculating Ewald energy ...              412.145930 Hartree
Basis initialisation ...... done
Sparse matrix initialisation ... done
NGWF initialisation ... done
Up spin density kernel initialisation ...... done

Writing density kernel to file "ribbon.dkn" ... done

>>> Optimising kernel for current NGWFs:
   iter  |      energy (Eh)       | rms gradient |  commutator  |   dE (Eh)
    1        -1.902707735755E+02     2.2237E-03     2.2237E-03
    2        -1.902887924084E+02     5.8435E-04     5.8435E-04    -1.8019E-02
    3        -1.902901380006E+02     1.5366E-04     1.5366E-04    -1.3456E-03
    4        -1.902903324493E+02     6.9384E-05     6.9384E-05    -1.9445E-04
    5        -1.902903793276E+02     4.1749E-05     4.1749E-05    -4.6878E-05
Finished density kernel iterations (   5)

Writing density kernel to file "ribbon.dkn" ... done


>>> Density kernel optimised for the current NGWF basis:
     ~~~~~~~~~~~~~~~~~~~~~~~~~~~~~~~~~~~~~~~~~~~~~~~~~~~~~~~~~~~
     Total energy                =  -1.90290379327639E+02  Eh
     Estimated bandgap           =   5.9534E-02  Eh
     RMS occupancy error         =   1.4613E-10
     [H,K] commutator            =   4.1749E-05
     Occupancy bounds            = [  0.000:  1.000]
     ~~~~~~~~~~~~~~~~~~~~~~~~~~~~~~~~~~~~~~~~~~~~~~~~~~~~~~~~~~~




################################################################################
########################### NGWF CG iteration  001 #############################
################################################################################

>>> Checking for convergence of NGWFs:   NOT CONVERGED
  ========================================================================
         NGWF RMS gradient =  1.8351E-03 >  2.0000E-06  | above tolerance
  ========================================================================

>>> Improving NGWFs using line search:
  ========================================================================
   Predicted total energy    =      -1.92580009347328E+02 Eh
   Predicted gain in energy  =      -2.28963001968830E+00 Eh
  ========================================================================

Writing NGWFs to file "ribbon.tightbox_ngwfs"....  done

>>> Optimising kernel for current NGWFs:
   iter  |      energy (Eh)       | rms gradient |  commutator  |   dE (Eh)
    1        -1.925720856523E+02     1.4156E-03     1.4156E-03
    2        -1.925805200379E+02     3.9699E-04     3.9699E-04    -8.4344E-03
    3        -1.925811032353E+02     1.3582E-04     1.3582E-04    -5.8320E-04
    4        -1.925812303896E+02     4.8275E-05     4.8275E-05    -1.2715E-04
    5        -1.925812501202E+02     2.7106E-05     2.7106E-05    -1.9731E-05
Finished density kernel iterations (   5)

Writing density kernel to file "ribbon.dkn" ... done


>>> Density kernel optimised for the current NGWF basis:
     ~~~~~~~~~~~~~~~~~~~~~~~~~~~~~~~~~~~~~~~~~~~~~~~~~~~~~~~~~~~
     Total energy                =  -1.92581250120154E+02  Eh
     Estimated bandgap           =   7.0372E-02  Eh
     RMS occupancy error         =   2.4477E-11
     [H,K] commutator            =   2.7106E-05
     Occupancy bounds            = [  0.000:  1.000]
     ~~~~~~~~~~~~~~~~~~~~~~~~~~~~~~~~~~~~~~~~~~~~~~~~~~~~~~~~~~~




################################################################################
########################### NGWF CG iteration  002 #############################
################################################################################

>>> Checking for convergence of NGWFs:   NOT CONVERGED
  ========================================================================
         NGWF RMS gradient =  6.7002E-04 >  2.0000E-06  | above tolerance
  ========================================================================

>>> Improving NGWFs using line search:
  ========================================================================
   Predicted total energy    =      -1.92886972333786E+02 Eh
   Predicted gain in energy  =      -3.05722213631697E-01 Eh
  ========================================================================

Writing NGWFs to file "ribbon.tightbox_ngwfs"....  done

>>> Optimising kernel for current NGWFs:
   iter  |      energy (Eh)       | rms gradient |  commutator  |   dE (Eh)
    1        -1.928878940135E+02     2.7315E-04     2.7315E-04
    2        -1.928883062110E+02     9.7398E-05     9.7398E-05    -4.1220E-04
    3        -1.928883436078E+02     4.0113E-05     4.0113E-05    -3.7397E-05
    4        -1.928883556118E+02     2.5709E-05     2.5709E-05    -1.2004E-05
    5        -1.928883630205E+02     1.7037E-05     1.7037E-05    -7.4087E-06
Finished density kernel iterations (   5)

Writing density kernel to file "ribbon.dkn" ... done


>>> Density kernel optimised for the current NGWF basis:
     ~~~~~~~~~~~~~~~~~~~~~~~~~~~~~~~~~~~~~~~~~~~~~~~~~~~~~~~~~~~
     Total energy                =  -1.92888363020492E+02  Eh
     Estimated bandgap           =   7.0274E-02  Eh
     RMS occupancy error         =   2.5167E-11
     [H,K] commutator            =   1.7037E-05
     Occupancy bounds            = [  0.000:  1.000]
     ~~~~~~~~~~~~~~~~~~~~~~~~~~~~~~~~~~~~~~~~~~~~~~~~~~~~~~~~~~~




################################################################################
########################### NGWF CG iteration  003 #############################
################################################################################

>>> Checking for convergence of NGWFs:   NOT CONVERGED
  ========================================================================
         NGWF RMS gradient =  2.7537E-04 >  2.0000E-06  | above tolerance
  ========================================================================

>>> Improving NGWFs using line search:
  ========================================================================
   Predicted total energy    =      -1.92939439607811E+02 Eh
   Predicted gain in energy  =      -5.10765873184198E-02 Eh
  ========================================================================

Writing NGWFs to file "ribbon.tightbox_ngwfs"....  done

>>> Optimising kernel for current NGWFs:
   iter  |      energy (Eh)       | rms gradient |  commutator  |   dE (Eh)
    1        -1.929394186051E+02     1.6450E-04     1.6450E-04
    2        -1.929395564724E+02     2.9276E-05     2.9276E-05    -1.3787E-04
    3        -1.929395621806E+02     1.2944E-05     1.2944E-05    -5.7082E-06
    4        -1.929395633013E+02     1.1562E-05     1.1562E-05    -1.1207E-06
    5        -1.929395646019E+02     8.6123E-06     8.6123E-06    -1.3006E-06
Finished density kernel iterations (   5)

Writing density kernel to file "ribbon.dkn" ... done


>>> Density kernel optimised for the current NGWF basis:
     ~~~~~~~~~~~~~~~~~~~~~~~~~~~~~~~~~~~~~~~~~~~~~~~~~~~~~~~~~~~
     Total energy                =  -1.92939564601923E+02  Eh
     Estimated bandgap           =   6.8589E-02  Eh
     RMS occupancy error         =   5.9096E-13
     [H,K] commutator            =   8.6123E-06
     Occupancy bounds            = [  0.000:  1.000]
     ~~~~~~~~~~~~~~~~~~~~~~~~~~~~~~~~~~~~~~~~~~~~~~~~~~~~~~~~~~~




################################################################################
########################### NGWF CG iteration  004 #############################
################################################################################

>>> Checking for convergence of NGWFs:   NOT CONVERGED
  ========================================================================
         NGWF RMS gradient =  1.3087E-04 >  2.0000E-06  | above tolerance
  ========================================================================

>>> Improving NGWFs using line search:
  ========================================================================
   Predicted total energy    =      -1.92951544572458E+02 Eh
   Predicted gain in energy  =      -1.19799705343837E-02 Eh
  ========================================================================

Writing NGWFs to file "ribbon.tightbox_ngwfs"....  done

>>> Optimising kernel for current NGWFs:
   iter  |      energy (Eh)       | rms gradient |  commutator  |   dE (Eh)
    1        -1.929515225906E+02     9.9142E-05     9.9142E-05
    2        -1.929515756751E+02     1.9351E-05     1.9351E-05    -5.3084E-05
    3        -1.929515779533E+02     9.0568E-06     9.0568E-06    -2.2782E-06
    4        -1.929515783703E+02     5.7872E-06     5.7872E-06    -4.1701E-07
    5        -1.929515787684E+02     5.1284E-06     5.1284E-06    -3.9808E-07
Finished density kernel iterations (   5)

Writing density kernel to file "ribbon.dkn" ... done


>>> Density kernel optimised for the current NGWF basis:
     ~~~~~~~~~~~~~~~~~~~~~~~~~~~~~~~~~~~~~~~~~~~~~~~~~~~~~~~~~~~
     Total energy                =  -1.92951578768376E+02  Eh
     Estimated bandgap           =   6.7212E-02  Eh
     RMS occupancy error         =   4.6060E-14
     [H,K] commutator            =   5.1284E-06
     Occupancy bounds            = [  0.000:  1.000]
     ~~~~~~~~~~~~~~~~~~~~~~~~~~~~~~~~~~~~~~~~~~~~~~~~~~~~~~~~~~~




################################################################################
########################### NGWF CG iteration  005 #############################
################################################################################

>>> Checking for convergence of NGWFs:   NOT CONVERGED
  ========================================================================
         NGWF RMS gradient =  6.8797E-05 >  2.0000E-06  | above tolerance
  ========================================================================

>>> Improving NGWFs using line search:
  ========================================================================
   Predicted total energy    =      -1.92954493531862E+02 Eh
   Predicted gain in energy  =      -2.91476348567699E-03 Eh
  ========================================================================

Writing NGWFs to file "ribbon.tightbox_ngwfs"....  done

>>> Optimising kernel for current NGWFs:
   iter  |      energy (Eh)       | rms gradient |  commutator  |   dE (Eh)
    1        -1.929544851670E+02     5.0794E-05     5.0794E-05
    2        -1.929545004283E+02     1.1635E-05     1.1635E-05    -1.5261E-05
    3        -1.929545013937E+02     4.2615E-06     4.2615E-06    -9.6547E-07
    4        -1.929545015681E+02     3.5896E-06     3.5896E-06    -1.7434E-07
    5        -1.929545016912E+02     4.1658E-06     4.1658E-06    -1.2312E-07
Finished density kernel iterations (   5)

Writing density kernel to file "ribbon.dkn" ... done


>>> Density kernel optimised for the current NGWF basis:
     ~~~~~~~~~~~~~~~~~~~~~~~~~~~~~~~~~~~~~~~~~~~~~~~~~~~~~~~~~~~
     Total energy                =  -1.92954501691201E+02  Eh
     Estimated bandgap           =   6.6475E-02  Eh
     RMS occupancy error         =   1.2936E-14
     [H,K] commutator            =   4.1658E-06
     Occupancy bounds            = [  0.000:  1.000]
     ~~~~~~~~~~~~~~~~~~~~~~~~~~~~~~~~~~~~~~~~~~~~~~~~~~~~~~~~~~~




################################################################################
########################### NGWF CG iteration  006 #############################
################################################################################

>>> Checking for convergence of NGWFs:   NOT CONVERGED
  ========================================================================
         NGWF RMS gradient =  4.5365E-05 >  2.0000E-06  | above tolerance
  ========================================================================

>>> Improving NGWFs using line search:
  ========================================================================
   Predicted total energy    =      -1.92956553342680E+02 Eh
   Predicted gain in energy  =      -2.05165147934849E-03 Eh
  ========================================================================

Writing NGWFs to file "ribbon.tightbox_ngwfs"....  done

>>> Optimising kernel for current NGWFs:
   iter  |      energy (Eh)       | rms gradient |  commutator  |   dE (Eh)
    1        -1.929565158902E+02     9.6439E-05     9.6439E-05
    2        -1.929565741585E+02     2.4336E-05     2.4336E-05    -5.8268E-05
    3        -1.929565782025E+02     8.6656E-06     8.6656E-06    -4.0439E-06
    4        -1.929565785824E+02     4.5529E-06     4.5529E-06    -3.7989E-07
    5        -1.929565787060E+02     2.3894E-06     2.3894E-06    -1.2358E-07
Finished density kernel iterations (   5)

Writing density kernel to file "ribbon.dkn" ... done


>>> Density kernel optimised for the current NGWF basis:
     ~~~~~~~~~~~~~~~~~~~~~~~~~~~~~~~~~~~~~~~~~~~~~~~~~~~~~~~~~~~
     Total energy                =  -1.92956578705961E+02  Eh
     Estimated bandgap           =   6.5253E-02  Eh
     RMS occupancy error         =   8.9789E-16
     [H,K] commutator            =   2.3894E-06
     Occupancy bounds            = [  0.000:  1.000]
     ~~~~~~~~~~~~~~~~~~~~~~~~~~~~~~~~~~~~~~~~~~~~~~~~~~~~~~~~~~~




################################################################################
########################### NGWF CG iteration  007 #############################
################################################################################

>>> Checking for convergence of NGWFs:   NOT CONVERGED
  ========================================================================
         NGWF RMS gradient =  3.4637E-05 >  2.0000E-06  | above tolerance
  ========================================================================

>>> Improving NGWFs using line search:
  ========================================================================
   Predicted total energy    =      -1.92957593732074E+02 Eh
   Predicted gain in energy  =      -1.01502611357773E-03 Eh
  ========================================================================

Writing NGWFs to file "ribbon.tightbox_ngwfs"....  done

>>> Optimising kernel for current NGWFs:
   iter  |      energy (Eh)       | rms gradient |  commutator  |   dE (Eh)
    1        -1.929575576253E+02     8.8330E-05     8.8330E-05
    2        -1.929576078460E+02     2.4257E-05     2.4257E-05    -5.0221E-05
    3        -1.929576117020E+02     1.0766E-05     1.0766E-05    -3.8560E-06
    4        -1.929576122153E+02     4.4122E-06     4.4122E-06    -5.1330E-07
    5        -1.929576123497E+02     2.1799E-06     2.1799E-06    -1.3435E-07
Finished density kernel iterations (   5)

Writing density kernel to file "ribbon.dkn" ... done


>>> Density kernel optimised for the current NGWF basis:
     ~~~~~~~~~~~~~~~~~~~~~~~~~~~~~~~~~~~~~~~~~~~~~~~~~~~~~~~~~~~
     Total energy                =  -1.92957612349675E+02  Eh
     Estimated bandgap           =   6.4624E-02  Eh
     RMS occupancy error         =   9.7121E-16
     [H,K] commutator            =   2.1799E-06
     Occupancy bounds            = [  0.000:  1.000]
     ~~~~~~~~~~~~~~~~~~~~~~~~~~~~~~~~~~~~~~~~~~~~~~~~~~~~~~~~~~~




################################################################################
########################### NGWF CG iteration  008 #############################
################################################################################

>>> Checking for convergence of NGWFs:   NOT CONVERGED
  ========================================================================
         NGWF RMS gradient =  1.9357E-05 >  2.0000E-06  | above tolerance
  ========================================================================

>>> Improving NGWFs using line search:
  ========================================================================
   Predicted total energy    =      -1.92957852722512E+02 Eh
   Predicted gain in energy  =      -2.40372837481573E-04 Eh
  ========================================================================

Writing NGWFs to file "ribbon.tightbox_ngwfs"....  done

>>> Optimising kernel for current NGWFs:
   iter  |      energy (Eh)       | rms gradient |  commutator  |   dE (Eh)
    1        -1.929578391065E+02     4.9357E-05     4.9357E-05
    2        -1.929578553645E+02     1.4740E-05     1.4740E-05    -1.6258E-05
    3        -1.929578566851E+02     7.3014E-06     7.3014E-06    -1.3205E-06
    4        -1.929578569325E+02     2.7478E-06     2.7478E-06    -2.4740E-07
    5        -1.929578569895E+02     1.5600E-06     1.5600E-06    -5.7034E-08
Finished density kernel iterations (   5)

Writing density kernel to file "ribbon.dkn" ... done


>>> Density kernel optimised for the current NGWF basis:
     ~~~~~~~~~~~~~~~~~~~~~~~~~~~~~~~~~~~~~~~~~~~~~~~~~~~~~~~~~~~
     Total energy                =  -1.92957856989488E+02  Eh
     Estimated bandgap           =   6.4504E-02  Eh
     RMS occupancy error         =   2.5460E-16
     [H,K] commutator            =   1.5600E-06
     Occupancy bounds            = [  0.000:  1.000]
     ~~~~~~~~~~~~~~~~~~~~~~~~~~~~~~~~~~~~~~~~~~~~~~~~~~~~~~~~~~~




################################################################################
########################### NGWF CG iteration  009 #############################
################################################################################

>>> Checking for convergence of NGWFs:   NOT CONVERGED
  ========================================================================
         NGWF RMS gradient =  6.7971E-06 >  2.0000E-06  | above tolerance
  ========================================================================

>>> Improving NGWFs using line search:
  ========================================================================
   Predicted total energy    =      -1.92957868725440E+02 Eh
   Predicted gain in energy  =      -1.17359520288574E-05 Eh
  ========================================================================

Writing NGWFs to file "ribbon.tightbox_ngwfs"....  done

>>> Optimising kernel for current NGWFs:
   iter  |      energy (Eh)       | rms gradient |  commutator  |   dE (Eh)
    1        -1.929578678529E+02     1.3537E-05     1.3537E-05
    2        -1.929578690569E+02     4.4623E-06     4.4623E-06    -1.2041E-06
    3        -1.929578691686E+02     2.5011E-06     2.5011E-06    -1.1169E-07
    4        -1.929578692039E+02     1.1538E-06     1.1538E-06    -3.5250E-08
    5        -1.929578692213E+02     1.1370E-06     1.1370E-06    -1.7391E-08
Finished density kernel iterations (   5)

Writing density kernel to file "ribbon.dkn" ... done


>>> Density kernel optimised for the current NGWF basis:
     ~~~~~~~~~~~~~~~~~~~~~~~~~~~~~~~~~~~~~~~~~~~~~~~~~~~~~~~~~~~
     Total energy                =  -1.92957869221276E+02  Eh
     Estimated bandgap           =   6.4517E-02  Eh
     RMS occupancy error         =   1.7774E-16
     [H,K] commutator            =   1.1370E-06
     Occupancy bounds            = [  0.000:  1.000]
     ~~~~~~~~~~~~~~~~~~~~~~~~~~~~~~~~~~~~~~~~~~~~~~~~~~~~~~~~~~~




################################################################################
########################### NGWF CG iteration  010 #############################
################################################################################

>>> Checking for convergence of NGWFs:   NOT CONVERGED
  ========================================================================
         NGWF RMS gradient =  2.3610E-06 >  2.0000E-06  | above tolerance
  ========================================================================

>>> Improving NGWFs using line search:
  ========================================================================
   Predicted total energy    =      -1.92957869569128E+02 Eh
   Predicted gain in energy  =      -3.47852136428628E-07 Eh
  ========================================================================

Writing NGWFs to file "ribbon.tightbox_ngwfs"....  done

>>> Optimising kernel for current NGWFs:
   iter  |      energy (Eh)       | rms gradient |  commutator  |   dE (Eh)
    1        -1.929578695181E+02     3.5806E-06     3.5806E-06
    2        -1.929578696047E+02     1.4333E-06     1.4333E-06    -8.6609E-08
    3        -1.929578696208E+02     8.2214E-07     8.2214E-07    -1.6128E-08
    4        -1.929578696267E+02     8.7340E-07     8.7340E-07    -5.8805E-09
    5        -1.929578696378E+02     1.0330E-06     1.0330E-06    -1.1078E-08
Finished density kernel iterations (   5)

Writing density kernel to file "ribbon.dkn" ... done


>>> Density kernel optimised for the current NGWF basis:
     ~~~~~~~~~~~~~~~~~~~~~~~~~~~~~~~~~~~~~~~~~~~~~~~~~~~~~~~~~~~
     Total energy                =  -1.92957869637781E+02  Eh
     Estimated bandgap           =   6.4516E-02  Eh
     RMS occupancy error         =   6.0528E-16
     [H,K] commutator            =   1.0330E-06
     Occupancy bounds            = [  0.000:  1.000]
     ~~~~~~~~~~~~~~~~~~~~~~~~~~~~~~~~~~~~~~~~~~~~~~~~~~~~~~~~~~~




################################################################################
########################### NGWF CG iteration  011 #############################
################################################################################

>>> Checking for convergence of NGWFs: 
           ........................................................
           |         *** NGWF optimisation converged ***          |
           | RMS NGWF gradient =    0.00000107796568              |
           | Criteria satisfied:                                  |
           | -> RMS NGWF gradient lower than set threshold.       |
           ========================================================

================================================================================
           ---------------- ENERGY COMPONENTS (Eh) ----------------
           | Kinetic                    :      140.01428550541277 |
           | Pseudopotential (local)    :    -1269.59929495557390 |
           | Pseudo (non-coul chg cor)  :        0.00000000000000
           | Pseudopotential (non-local):       23.90546609995732 |
           | Hartree                    :      562.08509234886594 |
           | Exchange-correlation       :      -61.50934843748649 |
           | Ewald                      :      412.14592980104379 |
           | Total                      :     -192.95786963778062 |
           --------------------------------------------------------
           Integrated density           :      143.99999999999949
================================================================================


                        <<<<< CALCULATION SUMMARY >>>>>                         
|ITER|    RMS GRADIENT   |     TOTAL ENERGY    |   step   |     Epredicted              
   0     0.00183514283835   -190.29037932763930   0.756951   -192.58000934732760        
   1     0.00067001998098   -192.58125012015398   0.756958   -192.88697233378568        
   2     0.00027537000249   -192.88836302049211   0.745007   -192.93943960781053        
   3     0.00013087027669   -192.93956460192337   0.776574   -192.95154457245775        
   4     0.00006879665566   -192.95157876837621   0.685663   -192.95449353186189        
   5     0.00004536525004   -192.95450169120090   1.107017   -192.95655334268025        
   6     0.00003463747972   -192.95657870596051   0.931013   -192.95759373207409        
   7     0.00001935704755   -192.95761234967472   0.701662   -192.95785272251220        
   8     0.00000679709941   -192.95785698948751   0.282822   -192.95786872543954        
   9     0.00000236095120   -192.95786922127635   0.069480   -192.95786956912849        
  10     0.00000107796568   -192.95786963778050  <-- CG                                 

======================== Writing density and potential =========================
Writing "ribbon_density.cube" ... done
Writing "ribbon_potential.cube" ... done
Writing "ribbon_electrostatic_potential.cube" ... done
================================================================================

    Mulliken Atomic Populations
    ---------------------------
Species  Ion    Total   Charge (e)
==================================
  C      1       4.019     -0.019
  C      2       4.018     -0.018
  H      3       0.734      0.266
  C      4       4.248     -0.248
  C      5       4.250     -0.250
  H      6       0.732      0.268
  C      7       4.019     -0.019
  C      8       4.017     -0.017
  H      9       0.734      0.266
  C     10       4.248     -0.248
  C     11       4.250     -0.250
  H     12       0.732      0.268
  C     13       4.018     -0.018
  C     14       4.017     -0.017
  H     15       0.733      0.267
  C     16       4.249     -0.249
  C     17       4.251     -0.251
  H     18       0.732      0.268
  C     19       4.018     -0.018
  C     20       4.017     -0.017
  H     21       0.733      0.267
  C     22       4.249     -0.249
  C     23       4.251     -0.251
  H     24       0.732      0.268
  C     25       4.018     -0.018
  C     26       4.017     -0.017
  H     27       0.733      0.267
  C     28       4.249     -0.249
  C     29       4.251     -0.251
  H     30       0.732      0.268
  C     31       4.018     -0.018
  C     32       4.017     -0.017
  H     33       0.733      0.267
  C     34       4.249     -0.249
  C     35       4.251     -0.251
  H     36       0.732      0.268
  C     37       4.018     -0.018
  C     38       4.017     -0.017
  H     39       0.734      0.266
  C     40       4.248     -0.248
  C     41       4.250     -0.250
  H     42       0.732      0.268
  C     43       4.019     -0.019
  C     44       4.017     -0.017
  H     45       0.734      0.266
  C     46       4.248     -0.248
  C     47       4.250     -0.250
  H     48       0.732      0.268
==================================

        Bond         Population      Length (bohr)
==================================================
 C     5 -- H     6        0.86      2.06000
 C    29 -- H    30        0.86      2.06000
 C    47 -- H    48        0.86      2.06000
 C    35 -- H    36        0.86      2.06000
 C    11 -- H    12        0.86      2.06000
 C    17 -- H    18        0.86      2.06000
 C    41 -- H    42        0.86      2.06000
 C    23 -- H    24        0.86      2.06000
 H    45 -- C    46        0.86      2.06000
 H    39 -- C    40        0.86      2.06000
 H    21 -- C    22        0.86      2.06000
 H    33 -- C    34        0.86      2.06000
 H     9 -- C    10        0.86      2.06000
 H    27 -- C    28        0.86      2.06000
 H     3 -- C     4        0.86      2.06000
 H    15 -- C    16        0.86      2.06000
 C    43 -- C    44        0.98      2.68000
 C    13 -- C    14        0.98      2.68000
 C    19 -- C    20        0.98      2.68000
 C    31 -- C    32        0.98      2.68000
 C     7 -- C     8        0.98      2.68000
 C     1 -- C     2        0.98      2.68000
 C    37 -- C    38        0.98      2.68000
 C    25 -- C    26        0.98      2.68000
 C    40 -- C    43        1.07      2.68524
 C    34 -- C    37        1.07      2.68524
 C     1 -- C    46        1.07      2.68524
 C    25 -- C    28        1.07      2.68524
 C    10 -- C    13        1.07      2.68524
 C     1 -- C     4        1.07      2.68524
 C    19 -- C    22        1.07      2.68524
 C    16 -- C    19        1.07      2.68524
 C    22 -- C    25        1.07      2.68524
 C     4 -- C     7        1.07      2.68524
 C     7 -- C    10        1.07      2.68524
 C    13 -- C    16        1.07      2.68524
 C    28 -- C    31        1.07      2.68524
 C    43 -- C    46        1.07      2.68524
 C    37 -- C    40        1.07      2.68524
 C    31 -- C    34        1.07      2.68524
 C     2 -- C    47        1.07      2.69025
 C    26 -- C    29        1.07      2.69025
 C    35 -- C    38        1.07      2.69025
 C    41 -- C    44        1.07      2.69025
 C    23 -- C    26        1.07      2.69025
 C    14 -- C    17        1.07      2.69025
 C     8 -- C    11        1.07      2.69025
 C    17 -- C    20        1.07      2.69025
 C     5 -- C     8        1.07      2.69025
 C    20 -- C    23        1.07      2.69025
 C     2 -- C     5        1.07      2.69025
 C    11 -- C    14        1.07      2.69025
 C    44 -- C    47        1.07      2.69025
 C    29 -- C    32        1.07      2.69025
 C    38 -- C    41        1.07      2.69025
 C    32 -- C    35        1.07      2.69025
 H    39 -- C    43       -0.12      4.12006
 H    33 -- C    37       -0.12      4.12006
 C     1 -- H    45       -0.12      4.12006
 C    25 -- H    27       -0.12      4.12006
 H     9 -- C    13       -0.12      4.12006
 H    21 -- C    25       -0.12      4.12006
 C     7 -- H     9       -0.12      4.12006
 C     1 -- H     3       -0.12      4.12006
 C    13 -- H    15       -0.12      4.12006
 H    15 -- C    19       -0.12      4.12006
 C    19 -- H    21       -0.12      4.12006
 H     3 -- C     7       -0.12      4.12006
 C    43 -- H    45       -0.12      4.12006
 C    31 -- H    33       -0.12      4.12006
 H    27 -- C    31       -0.12      4.12006
 C    37 -- H    39       -0.12      4.12006
 H    36 -- C    38       -0.11      4.12832
 H    42 -- C    44       -0.11      4.12832
 C     2 -- H    48       -0.11      4.12832
 C    26 -- H    30       -0.11      4.12832
 C    20 -- H    24       -0.11      4.12832
 C     8 -- H    12       -0.11      4.12832
 H    18 -- C    20       -0.11      4.12832
 H     6 -- C     8       -0.11      4.12832
 C    14 -- H    18       -0.11      4.12832
 C     2 -- H     6       -0.11      4.12832
 H    12 -- C    14       -0.11      4.12832
 H    24 -- C    26       -0.11      4.12832
 C    44 -- H    48       -0.11      4.12832
 C    38 -- H    42       -0.11      4.12832
 C    32 -- H    36       -0.11      4.12832
 H    30 -- C    32       -0.11      4.12832
 C    34 -- C    38       -0.16      4.64493
 C     2 -- C    46       -0.16      4.64493
 C    40 -- C    44       -0.16      4.64493
 C    26 -- C    28       -0.16      4.64493
 C    22 -- C    26       -0.16      4.64493
 C     8 -- C    10       -0.16      4.64493
 C    16 -- C    20       -0.16      4.64493
 C    14 -- C    16       -0.16      4.64493
 C    20 -- C    22       -0.16      4.64493
 C     2 -- C     4       -0.16      4.64493
 C    10 -- C    14       -0.16      4.64493
 C     4 -- C     8       -0.16      4.64493
 C    38 -- C    40       -0.16      4.64493
 C    44 -- C    46       -0.16      4.64493
 C    28 -- C    32       -0.16      4.64493
 C    32 -- C    34       -0.16      4.64493
 C    41 -- C    43       -0.16      4.65358
 C    35 -- C    37       -0.16      4.65358
 C     1 -- C    47       -0.16      4.65358
 C    25 -- C    29       -0.16      4.65358
 C    23 -- C    25       -0.16      4.65358
 C     7 -- C    11       -0.16      4.65358
 C    19 -- C    23       -0.16      4.65358
 C    17 -- C    19       -0.16      4.65358
 C     1 -- C     5       -0.16      4.65358
 C    13 -- C    17       -0.16      4.65358
 C     5 -- C     7       -0.16      4.65358
 C    11 -- C    13       -0.16      4.65358
 C    43 -- C    47       -0.16      4.65358
 C    37 -- C    41       -0.16      4.65358
 C    31 -- C    35       -0.16      4.65358
 C    29 -- C    31       -0.16      4.65358
 C    23 -- C    29       -0.20      4.65400
 C    22 -- C    28       -0.19      4.65400
 C     4 -- C    46       -0.20      4.65400
 H    21 -- H    27       -0.01      4.65400
 H     3 -- H    45       -0.01      4.65400
 H     6 -- H    48       -0.01      4.65400
 C     5 -- C    47       -0.20      4.65400
 H    24 -- H    30       -0.01      4.65400
 H     9 -- H    15       -0.01      4.65400
 C     8 -- C    14       -0.17      4.65400
 C    20 -- C    26       -0.17      4.65400
 C     2 -- C    44       -0.17      4.65400
 H    42 -- H    48       -0.01      4.65400
 C    19 -- C    25       -0.17      4.65400
 C    41 -- C    47       -0.20      4.65400
 H     3 -- H     9       -0.01      4.65400
 C    40 -- C    46       -0.20      4.65400
 H    18 -- H    24       -0.01      4.65400
 C     7 -- C    13       -0.17      4.65400
 H    39 -- H    45       -0.01      4.65400
 C    38 -- C    44       -0.17      4.65400
 C    17 -- C    23       -0.20      4.65400
 C    37 -- C    43       -0.17      4.65400
 C    16 -- C    22       -0.19      4.65400
 H     6 -- H    12       -0.01      4.65400
 C    35 -- C    41       -0.20      4.65400
 H    15 -- H    21       -0.01      4.65400
 C    34 -- C    40       -0.19      4.65400
 H    36 -- H    42       -0.01      4.65400
 H    33 -- H    39       -0.01      4.65400
 C    14 -- C    20       -0.17      4.65400
 C    32 -- C    38       -0.17      4.65400
 C     2 -- C     8       -0.17      4.65400
 C    31 -- C    37       -0.17      4.65400
 C     5 -- C    11       -0.20      4.65400
 C    13 -- C    19       -0.17      4.65400
 H    12 -- H    18       -0.01      4.65400
 C    26 -- C    32       -0.17      4.65400
 C    11 -- C    17       -0.20      4.65400
 C     4 -- C    10       -0.20      4.65400
 C     1 -- C     7       -0.17      4.65400
 C    25 -- C    31       -0.17      4.65400
 C     1 -- C    43       -0.17      4.65400
 C    10 -- C    16       -0.19      4.65400
 H    30 -- H    36       -0.01      4.65400
 C    29 -- C    35       -0.20      4.65400
 C    28 -- C    34       -0.19      4.65400
 H    27 -- H    33       -0.01      4.65400
 C    23 -- H    30       -0.04      5.08953
 C    22 -- H    27       -0.04      5.08953
 H    21 -- C    28       -0.04      5.08953
 C     4 -- H    45       -0.04      5.08953
 H     3 -- C    46       -0.04      5.08953
 H     6 -- C    47       -0.04      5.08953
 C     5 -- H    48       -0.04      5.08953
 H    24 -- C    29       -0.04      5.08953
 H    42 -- C    47       -0.04      5.08953
 C    41 -- H    48       -0.04      5.08953
 H    18 -- C    23       -0.04      5.08953
 C    17 -- H    24       -0.04      5.08953
 H    36 -- C    41       -0.04      5.08953
 C    35 -- H    42       -0.04      5.08953
 H     6 -- C    11       -0.04      5.08953
 C     5 -- H    12       -0.04      5.08953
 H    12 -- C    17       -0.04      5.08953
 C    11 -- H    18       -0.04      5.08953
 C    10 -- H    15       -0.04      5.08953
 H     9 -- C    16       -0.04      5.08953
 H     3 -- C    10       -0.04      5.08953
 C    40 -- H    45       -0.04      5.08953
 H    39 -- C    46       -0.04      5.08953
 C    16 -- H    21       -0.04      5.08953
 H    15 -- C    22       -0.04      5.08953
 C    34 -- H    39       -0.04      5.08953
 H    33 -- C    40       -0.04      5.08953
 C     4 -- H     9       -0.04      5.08953
 H    30 -- C    35       -0.04      5.08953
 C    29 -- H    36       -0.04      5.08953
 C    28 -- H    33       -0.04      5.08953
 H    27 -- C    34       -0.04      5.08953
 C     4 -- C     5       -0.08      5.37000
 C    22 -- C    23       -0.08      5.37000
 C    46 -- C    47       -0.08      5.37000
 C    40 -- C    41       -0.08      5.37000
 C    16 -- C    17       -0.08      5.37000
 C    34 -- C    35       -0.08      5.37000
 C    28 -- C    29       -0.08      5.37000
 C    10 -- C    11       -0.08      5.37000
 C    20 -- C    25       -0.08      5.37049
 C    19 -- C    26       -0.08      5.37049
 C     8 -- C    13       -0.08      5.37049
 C     7 -- C    14       -0.08      5.37049
 C    38 -- C    43       -0.08      5.37049
 C    37 -- C    44       -0.08      5.37049
 C     2 -- C    43       -0.08      5.37049
 C     1 -- C     8       -0.08      5.37049
 C    14 -- C    19       -0.08      5.37049
 C    32 -- C    37       -0.08      5.37049
 C    31 -- C    38       -0.08      5.37049
 C    13 -- C    20       -0.08      5.37049
 C     2 -- C     7       -0.08      5.37049
 C    26 -- C    31       -0.08      5.37049
 C    25 -- C    32       -0.08      5.37049
 C     1 -- C    44       -0.08      5.37049
==================================================


=================== Orbital energy and occupancy information ===================

      Total number of orbitals:     144
   Number of occupied orbitals:      72.000000000
   Occupancy sum (eigenvalues):      72.000000000
                 HOMO-LUMO gap:       0.021738464 Eh
                 Mid-gap level:      -0.114157844 Eh

                        Orbital | Energy (Eh) | Occupancy
                            1    -0.787727093   1.0000000
                        .......   ...........   .........
                           63    -0.246820464   1.0000000
                           64    -0.243562178   1.0000000
                           65    -0.243554320   1.0000000
                           66    -0.241812250   1.0000000
                           67    -0.207896359   1.0000000
                           68    -0.207896149   1.0000000
                           69    -0.200203407   1.0000000
                           70    -0.151676839   1.0000000
                           71    -0.151676053   1.0000000
                           72    -0.125027076   0.9999996
                        .......   --- gap ---   .........
                           73    -0.103288612   0.0000004
                           74    -0.072322200   0.0000000
                           75    -0.072321651   0.0000000
                           76    -0.019427356   0.0000000
                           77    -0.012013943   0.0000000
                           78    -0.012013329   0.0000000
                           79     0.017007082   0.0000000
                           80     0.017014280   0.0000000
                           81     0.023743708   0.0000000
                           82     0.041987822   0.0000000
                        .......   ...........   .........
                          144     0.685641037   0.0000000

================================================================================

===================== Writing canonical molecular orbitals =====================
| Orbital  Energy (eV)  Norm     |
| HOMO-5   -5.65714777  1.000000 | Writing "ribbon_HOMO-5.cube" ... done
| HOMO-4   -5.65714208  1.000000 | Writing "ribbon_HOMO-4.cube" ... done
| HOMO-3   -5.44781190  1.000000 | Writing "ribbon_HOMO-3.cube" ... done
| HOMO-2   -4.12733680  1.000000 | Writing "ribbon_HOMO-2.cube" ... done
| HOMO-1   -4.12731541  1.000000 | Writing "ribbon_HOMO-1.cube" ... done
| HOMO     -3.40215985  1.000000 | Writing "ribbon_HOMO.cube" ... done
| LUMO     -2.81062615  1.000000 | Writing "ribbon_LUMO.cube" ... done
| LUMO+1   -1.96798721  1.000000 | Writing "ribbon_LUMO+1.cube" ... done
| LUMO+2   -1.96797227  1.000000 | Writing "ribbon_LUMO+2.cube" ... done
| LUMO+3   -0.52864526  1.000000 | Writing "ribbon_LUMO+3.cube" ... done
| LUMO+4   -0.32691603  1.000000 | Writing "ribbon_LUMO+4.cube" ... done
| LUMO+5   -0.32689932  1.000000 | Writing "ribbon_LUMO+5.cube" ... done
================================================================================
 
===================== Density of States (DOS) calculation ======================
Writing "ribbon_DOS.txt" ...  done
================================================================================
 
Writing bands to file "ribbon.val_bands" ... done

WARNING: read_denskern overridden to T because of task COND.


WARNING: read_tightbox_ngwfs overridden to T because of task COND.


Determining parallel strategy ...... done
Basis initialisation ...... done
Sparse matrix initialisation ... done

Reading NGWFs from file "ribbon.tightbox_ngwfs" ...  done

Reading density kernel from file "ribbon.dkn" ... done
Conduction NGWF sparse matrix initialisation ... done
Conduction NGWF initialisation ... done
+------------------------------------------------------------------------------+
|                   Starting conduction NGWF optimisation                      |
+------------------------------------------------------------------------------+

Starting conduction NGWF pre-optimisation process

Generating conduction density kernel for    10 'occupied' orbitals
Up spin density kernel initialisation ...
WARNING in palser_mano_kernel_optimise: Possible degeneracy at topmost state of conduction kernel

Diagonalisation (maxit_palser_mano=-1) may be required.
... done

Writing density kernel to file "ribbon.dkn_cond" ... done

>>> Optimising kernel for current NGWFs:
   iter  |      energy (Eh)       | rms gradient |  commutator  |   dE (Eh)
    1         7.874864051453E-02      1.134E-12      3.561E-13

                 ..............................................
                 | RMS LNV GRADIENT=    0.00000000000036      |
                 | LNV density kernel optimisation converged! |
                 ~~~~~~~~~~~~~~~~~~~~~~~~~~~~~~~~~~~~~~~~~~~~~~

Writing density kernel to file "ribbon.dkn_cond" ... done


>>> Density kernel optimised for the current NGWF basis:
     ~~~~~~~~~~~~~~~~~~~~~~~~~~~~~~~~~~~~~~~~~~~~~~~~~~~~~~~~~~~
     Total energy                =   7.87486405145336E-02  Eh
     Estimated gap above Kc      =   7.1948E-07  Eh
     RMS occupancy error         =   3.5083E-13
     [H,K] commutator            =   1.1337E-12
     Occupancy bounds            = [ -0.000:  1.000]
     ~~~~~~~~~~~~~~~~~~~~~~~~~~~~~~~~~~~~~~~~~~~~~~~~~~~~~~~~~~~




################################################################################
######################### COND NGWF CG iteration  001 ##########################
################################################################################

>>> Checking for convergence of NGWFs:   NOT CONVERGED
  ========================================================================
         NGWF RMS gradient =  4.2290E-04 >  2.0000E-06  | above tolerance
  ========================================================================

>>> Improving NGWFs using line search:
  ========================================================================
   Predicted total energy    =      -2.54105553728121E-01 Eh
   Predicted gain in energy  =      -3.32854194242655E-01 Eh
  ========================================================================

Writing NGWFs to file "ribbon.tightbox_ngwfs_cond"....  done

>>> Optimising kernel for current NGWFs:
   iter  |      energy (Eh)       | rms gradient |  commutator  |   dE (Eh)
    1        -2.564086422831E-01     7.5567E-05     5.4408E-04
    2        -2.564575479497E-01     3.8593E-05     2.7787E-04    -4.8906E-05
    3        -2.564899531926E-01     1.4997E-05     1.0798E-04    -3.2405E-05
    4        -2.564915275113E-01     5.6013E-06     4.0329E-05    -1.5743E-06
    5        -2.564921268234E-01     1.4901E-06     1.0729E-05    -5.9931E-07
    6        -2.564921402648E-01     1.1040E-07     7.9487E-07    -1.3441E-08
    7        -2.564921403934E-01     8.3468E-08     6.0097E-07    -1.2862E-10
    8        -2.564921404622E-01     6.0656E-08     4.3672E-07    -6.8814E-11
    9        -2.564921405504E-01     2.8529E-08     2.0541E-07    -8.8125E-11
   10        -2.564921405579E-01     1.7558E-08     1.2642E-07    -7.5629E-12
Finished density kernel iterations (  10)

Writing density kernel to file "ribbon.dkn_cond" ... done


>>> Density kernel optimised for the current NGWF basis:
     ~~~~~~~~~~~~~~~~~~~~~~~~~~~~~~~~~~~~~~~~~~~~~~~~~~~~~~~~~~~
     Total energy                =  -2.56492140557931E-01  Eh
     Estimated gap above Kc      =   4.5202E-03  Eh
     RMS occupancy error         =   6.3100E-17
     [H,K] commutator            =   1.2642E-07
     Occupancy bounds            = [ -0.000:  1.000]
     ~~~~~~~~~~~~~~~~~~~~~~~~~~~~~~~~~~~~~~~~~~~~~~~~~~~~~~~~~~~




################################################################################
######################### COND NGWF CG iteration  002 ##########################
################################################################################

>>> Checking for convergence of NGWFs:   NOT CONVERGED
  ========================================================================
         NGWF RMS gradient =  2.4966E-04 >  2.0000E-06  | above tolerance
  ========================================================================

>>> Improving NGWFs using line search:
  ========================================================================
   Predicted total energy    =      -3.76776420120562E-01 Eh
   Predicted gain in energy  =      -1.20284279562630E-01 Eh
  ========================================================================

Writing NGWFs to file "ribbon.tightbox_ngwfs_cond"....  done

>>> Optimising kernel for current NGWFs:
   iter  |      energy (Eh)       | rms gradient |  commutator  |   dE (Eh)
    1        -3.774195791034E-01     8.7351E-05     6.2893E-04
    2        -3.774685388587E-01     1.0547E-05     7.5936E-05    -4.8960E-05
    3        -3.774707173467E-01     9.7459E-06     7.0170E-05    -2.1785E-06
    4        -3.774715546276E-01     1.7268E-06     1.2433E-05    -8.3728E-07
    5        -3.774716145838E-01     1.1469E-06     8.2578E-06    -5.9956E-08
    6        -3.774716240683E-01     1.5334E-07     1.1040E-06    -9.4845E-09
    7        -3.774716243447E-01     1.3522E-07     9.7362E-07    -2.7635E-10
    8        -3.774716245212E-01     9.8842E-08     7.1166E-07    -1.7648E-10
    9        -3.774716248215E-01     6.1919E-08     4.4582E-07    -3.0030E-10
   10        -3.774716248485E-01     1.7280E-08     1.2441E-07    -2.7028E-11
Finished density kernel iterations (  10)

Writing density kernel to file "ribbon.dkn_cond" ... done


>>> Density kernel optimised for the current NGWF basis:
     ~~~~~~~~~~~~~~~~~~~~~~~~~~~~~~~~~~~~~~~~~~~~~~~~~~~~~~~~~~~
     Total energy                =  -3.77471624848500E-01  Eh
     Estimated gap above Kc      =   3.7291E-03  Eh
     RMS occupancy error         =   1.0592E-16
     [H,K] commutator            =   1.2441E-07
     Occupancy bounds            = [  0.000:  1.000]
     ~~~~~~~~~~~~~~~~~~~~~~~~~~~~~~~~~~~~~~~~~~~~~~~~~~~~~~~~~~~




################################################################################
######################### COND NGWF CG iteration  003 ##########################
################################################################################

>>> Checking for convergence of NGWFs:   NOT CONVERGED
  ========================================================================
         NGWF RMS gradient =  1.4953E-04 >  2.0000E-06  | above tolerance
  ========================================================================

>>> Improving NGWFs using line search:
  ========================================================================
   Predicted total energy    =      -4.32586621638538E-01 Eh
   Predicted gain in energy  =      -5.51149967900374E-02 Eh
  ========================================================================

Writing NGWFs to file "ribbon.tightbox_ngwfs_cond"....  done

>>> Optimising kernel for current NGWFs:
   iter  |      energy (Eh)       | rms gradient |  commutator  |   dE (Eh)
    1        -4.325434410667E-01     1.1077E-04     7.9753E-04
    2        -4.326235308077E-01     1.4478E-05     1.0424E-04    -8.0090E-05
    3        -4.326290264557E-01     1.1728E-05     8.4440E-05    -5.4956E-06
    4        -4.326300401202E-01     2.0261E-06     1.4588E-05    -1.0137E-06
    5        -4.326301104261E-01     1.4298E-06     1.0294E-05    -7.0306E-08
    6        -4.326301274145E-01     1.4296E-07     1.0293E-06    -1.6988E-08
    7        -4.326301278026E-01     1.6821E-07     1.2111E-06    -3.8814E-10
    8        -4.326301280284E-01     8.3919E-08     6.0422E-07    -2.2574E-10
    9        -4.326301280499E-01     8.0816E-08     5.8187E-07    -2.1495E-11
   10        -4.326301282564E-01     9.4566E-08     6.8088E-07    -2.0655E-10
Finished density kernel iterations (  10)

Writing density kernel to file "ribbon.dkn_cond" ... done


>>> Density kernel optimised for the current NGWF basis:
     ~~~~~~~~~~~~~~~~~~~~~~~~~~~~~~~~~~~~~~~~~~~~~~~~~~~~~~~~~~~
     Total energy                =  -4.32630128256409E-01  Eh
     Estimated gap above Kc      =   1.8513E-03  Eh
     RMS occupancy error         =   6.7612E-17
     [H,K] commutator            =   6.8088E-07
     Occupancy bounds            = [  0.000:  1.000]
     ~~~~~~~~~~~~~~~~~~~~~~~~~~~~~~~~~~~~~~~~~~~~~~~~~~~~~~~~~~~




################################################################################
######################### COND NGWF CG iteration  004 ##########################
################################################################################

>>> Checking for convergence of NGWFs:   NOT CONVERGED
  ========================================================================
         NGWF RMS gradient =  1.1671E-04 >  2.0000E-06  | above tolerance
  ========================================================================

>>> Improving NGWFs using line search:
  ========================================================================
   Predicted total energy    =      -4.60515927729657E-01 Eh
   Predicted gain in energy  =      -2.78857994732482E-02 Eh
  ========================================================================

Writing NGWFs to file "ribbon.tightbox_ngwfs_cond"....  done

>>> Optimising kernel for current NGWFs:
   iter  |      energy (Eh)       | rms gradient |  commutator  |   dE (Eh)
    1        -4.602773783912E-01     1.2055E-04     8.6797E-04
    2        -4.603730099643E-01     9.5703E-06     6.8906E-05    -9.5632E-05
    3        -4.603748354001E-01     9.3208E-06     6.7110E-05    -1.8254E-06
    4        -4.603757381129E-01     1.3611E-06     9.7997E-06    -9.0271E-07
    5        -4.603757544170E-01     7.4347E-07     5.3530E-06    -1.6304E-08
    6        -4.603757630644E-01     1.5770E-07     1.1354E-06    -8.6474E-09
    7        -4.603757632442E-01     5.7832E-08     4.1639E-07    -1.7976E-10
    8        -4.603757633201E-01     7.6608E-08     5.5158E-07    -7.5980E-11
    9        -4.603757634038E-01     2.1546E-08     1.5513E-07    -8.3709E-11
   10        -4.603757634081E-01     1.1760E-08     8.4674E-08    -4.2976E-12
Finished density kernel iterations (  10)

Writing density kernel to file "ribbon.dkn_cond" ... done


>>> Density kernel optimised for the current NGWF basis:
     ~~~~~~~~~~~~~~~~~~~~~~~~~~~~~~~~~~~~~~~~~~~~~~~~~~~~~~~~~~~
     Total energy                =  -4.60375763408141E-01  Eh
     Estimated gap above Kc      =   8.0658E-04  Eh
     RMS occupancy error         =   1.0920E-16
     [H,K] commutator            =   8.4674E-08
     Occupancy bounds            = [  0.000:  1.000]
     ~~~~~~~~~~~~~~~~~~~~~~~~~~~~~~~~~~~~~~~~~~~~~~~~~~~~~~~~~~~




################################################################################
######################### COND NGWF CG iteration  005 ##########################
################################################################################

>>> Checking for convergence of NGWFs:   NOT CONVERGED
  ========================================================================
         NGWF RMS gradient =  8.9113E-05 >  2.0000E-06  | above tolerance
  ========================================================================

>>> Improving NGWFs using line search:
  ========================================================================
   Predicted total energy    =      -4.70670954809879E-01 Eh
   Predicted gain in energy  =      -1.02951914017383E-02 Eh
  ========================================================================

Writing NGWFs to file "ribbon.tightbox_ngwfs_cond"....  done

>>> Optimising kernel for current NGWFs:
   iter  |      energy (Eh)       | rms gradient |  commutator  |   dE (Eh)
    1        -4.706707149592E-01     4.8839E-05     3.5164E-04
    2        -4.706866120288E-01     2.1317E-06     1.5348E-05    -1.5897E-05
    3        -4.706866609816E-01     1.5764E-06     1.1350E-05    -4.8953E-08
    4        -4.706867093420E-01     4.7303E-07     3.4058E-06    -4.8360E-08
    5        -4.706867107921E-01     8.0701E-08     5.8105E-07    -1.4501E-09
    6        -4.706867109355E-01     7.7316E-08     5.5668E-07    -1.4339E-10
    7        -4.706867110036E-01     3.6094E-08     2.5988E-07    -6.8059E-11
    8        -4.706867110264E-01     3.2760E-08     2.3587E-07    -2.2867E-11
    9        -4.706867110381E-01     1.6475E-08     1.1862E-07    -1.1676E-11
   10        -4.706867110461E-01     1.8696E-08     1.3461E-07    -7.9389E-12
Finished density kernel iterations (  10)

Writing density kernel to file "ribbon.dkn_cond" ... done


>>> Density kernel optimised for the current NGWF basis:
     ~~~~~~~~~~~~~~~~~~~~~~~~~~~~~~~~~~~~~~~~~~~~~~~~~~~~~~~~~~~
     Total energy                =  -4.70686711046051E-01  Eh
     Estimated gap above Kc      =   8.6037E-04  Eh
     RMS occupancy error         =   9.6996E-17
     [H,K] commutator            =   1.3461E-07
     Occupancy bounds            = [  0.000:  1.000]
     ~~~~~~~~~~~~~~~~~~~~~~~~~~~~~~~~~~~~~~~~~~~~~~~~~~~~~~~~~~~

WARNING: maximum number of NGWF CG iterations (   5) exceeded!

                        <<<<< CALCULATION SUMMARY >>>>>                         
|ITER|    RMS GRADIENT   |     TOTAL ENERGY    |   step   |     Epredicted              
   0     0.00042289855333      0.07874864051453   1.060947     -0.25410555372812        
   1     0.00024965604739     -0.25649214055793   1.083374     -0.37677642012056        
   2     0.00014952976700     -0.37747162484850   1.384699     -0.43258662163854        
   3     0.00011671467075     -0.43263012825641   1.159851     -0.46051592772966        
   4     0.00008911254011     -0.47068671104605  <-- CG                                 

Conduction NGWF pre-optimisation process complete.
Proceeding with the main conduction NGWF optimisation process.

Generating conduction density kernel for     6 'occupied' orbitals
Up spin density kernel initialisation ...... done

Writing density kernel to file "ribbon.dkn_cond" ... done

>>> Optimising kernel for current NGWFs:
   iter  |      energy (Eh)       | rms gradient |  commutator  |   dE (Eh)
    1        -5.966988918763E-01      1.103E-15      1.132E-16

                 ..............................................
                 | RMS LNV GRADIENT=    0.00000000000000      |
                 | LNV density kernel optimisation converged! |
                 ~~~~~~~~~~~~~~~~~~~~~~~~~~~~~~~~~~~~~~~~~~~~~~

Writing density kernel to file "ribbon.dkn_cond" ... done


>>> Density kernel optimised for the current NGWF basis:
     ~~~~~~~~~~~~~~~~~~~~~~~~~~~~~~~~~~~~~~~~~~~~~~~~~~~~~~~~~~~
     Total energy                =  -5.96698891876281E-01  Eh
     Estimated gap above Kc      =   2.1570E-02  Eh
     RMS occupancy error         =   4.0298E-17
     [H,K] commutator            =   1.1026E-15
     Occupancy bounds            = [  0.000:  1.000]
     ~~~~~~~~~~~~~~~~~~~~~~~~~~~~~~~~~~~~~~~~~~~~~~~~~~~~~~~~~~~




################################################################################
######################### COND NGWF CG iteration  001 ##########################
################################################################################

>>> Checking for convergence of NGWFs:   NOT CONVERGED
  ========================================================================
         NGWF RMS gradient =  3.1083E-05 >  2.0000E-06  | above tolerance
  ========================================================================

>>> Improving NGWFs using line search:
  ========================================================================
   Predicted total energy    =      -5.98115583001847E-01 Eh
   Predicted gain in energy  =      -1.41669112556664E-03 Eh
  ========================================================================

Writing NGWFs to file "ribbon.tightbox_ngwfs_cond"....  done

>>> Optimising kernel for current NGWFs:
   iter  |      energy (Eh)       | rms gradient |  commutator  |   dE (Eh)
    1        -5.981121983350E-01     7.9488E-06     9.5386E-05
    2        -5.981126196936E-01     5.2041E-07     6.2450E-06    -4.2136E-07
    3        -5.981126244976E-01     4.6912E-07     5.6294E-06    -4.8039E-09
    4        -5.981126268247E-01     1.1609E-07     1.3930E-06    -2.3271E-09
    5        -5.981126271690E-01     1.0950E-07     1.3140E-06    -3.4433E-10
    6        -5.981126272939E-01     4.5007E-08     5.4008E-07    -1.2493E-10
    7        -5.981126273001E-01     4.3029E-08     5.1634E-07    -6.1555E-12
    8        -5.981126273594E-01     6.0429E-08     7.2515E-07    -5.9318E-11
    9        -5.981126273881E-01     5.7764E-08     6.9317E-07    -2.8720E-11
   10        -5.981126274022E-01     3.5653E-08     4.2784E-07    -1.4048E-11
Finished density kernel iterations (  10)

Writing density kernel to file "ribbon.dkn_cond" ... done


>>> Density kernel optimised for the current NGWF basis:
     ~~~~~~~~~~~~~~~~~~~~~~~~~~~~~~~~~~~~~~~~~~~~~~~~~~~~~~~~~~~
     Total energy                =  -5.98112627402186E-01  Eh
     Estimated gap above Kc      =   2.1455E-02  Eh
     RMS occupancy error         =   3.5501E-17
     [H,K] commutator            =   4.2784E-07
     Occupancy bounds            = [  0.000:  1.000]
     ~~~~~~~~~~~~~~~~~~~~~~~~~~~~~~~~~~~~~~~~~~~~~~~~~~~~~~~~~~~




################################################################################
######################### COND NGWF CG iteration  002 ##########################
################################################################################

>>> Checking for convergence of NGWFs:   NOT CONVERGED
  ========================================================================
         NGWF RMS gradient =  2.2072E-05 >  2.0000E-06  | above tolerance
  ========================================================================

>>> Improving NGWFs using line search:
  ========================================================================
   Predicted total energy    =      -5.99596870625927E-01 Eh
   Predicted gain in energy  =      -1.48424322374052E-03 Eh
  ========================================================================

Writing NGWFs to file "ribbon.tightbox_ngwfs_cond"....  done

>>> Optimising kernel for current NGWFs:
   iter  |      energy (Eh)       | rms gradient |  commutator  |   dE (Eh)
    1        -5.995770523522E-01     2.1400E-05     2.5680E-04
    2        -5.995801864572E-01     1.5616E-06     1.8740E-05    -3.1341E-06
    3        -5.995802265653E-01     1.4255E-06     1.7106E-05    -4.0108E-08
    4        -5.995802509316E-01     3.0344E-07     3.6413E-06    -2.4366E-08
    5        -5.995802522954E-01     2.2828E-07     2.7393E-06    -1.3638E-09
    6        -5.995802530234E-01     9.1994E-08     1.1039E-06    -7.2806E-10
    7        -5.995802531488E-01     8.6088E-08     1.0331E-06    -1.2539E-10
    8        -5.995802532330E-01     6.3782E-08     7.6538E-07    -8.4218E-11
    9        -5.995802533575E-01     6.6032E-08     7.9239E-07    -1.2444E-10
   10        -5.995802534153E-01     4.5909E-08     5.5091E-07    -5.7837E-11
Finished density kernel iterations (  10)

Writing density kernel to file "ribbon.dkn_cond" ... done


>>> Density kernel optimised for the current NGWF basis:
     ~~~~~~~~~~~~~~~~~~~~~~~~~~~~~~~~~~~~~~~~~~~~~~~~~~~~~~~~~~~
     Total energy                =  -5.99580253415325E-01  Eh
     Estimated gap above Kc      =   2.1302E-02  Eh
     RMS occupancy error         =   5.1561E-17
     [H,K] commutator            =   5.5091E-07
     Occupancy bounds            = [ -0.000:  1.000]
     ~~~~~~~~~~~~~~~~~~~~~~~~~~~~~~~~~~~~~~~~~~~~~~~~~~~~~~~~~~~




################################################################################
######################### COND NGWF CG iteration  003 ##########################
################################################################################

>>> Checking for convergence of NGWFs:   NOT CONVERGED
  ========================================================================
         NGWF RMS gradient =  1.7046E-05 >  2.0000E-06  | above tolerance
  ========================================================================

>>> Improving NGWFs using line search:
  ========================================================================
   Predicted total energy    =      -6.00092027384363E-01 Eh
   Predicted gain in energy  =      -5.11773969037232E-04 Eh
  ========================================================================

Writing NGWFs to file "ribbon.tightbox_ngwfs_cond"....  done

>>> Optimising kernel for current NGWFs:
   iter  |      energy (Eh)       | rms gradient |  commutator  |   dE (Eh)
    1        -6.000856275002E-01     1.3252E-05     1.5902E-04
    2        -6.000868531838E-01     7.6778E-07     9.2133E-06    -1.2257E-06
    3        -6.000868587980E-01     5.0096E-07     6.0115E-06    -5.6142E-09
    4        -6.000868654928E-01     2.4226E-07     2.9072E-06    -6.6948E-09
    5        -6.000868662825E-01     2.0774E-07     2.4929E-06    -7.8976E-10
    6        -6.000868664145E-01     2.0107E-07     2.4128E-06    -1.3200E-10
    7        -6.000868676032E-01     2.7374E-07     3.2849E-06    -1.1887E-09
    8        -6.000868684867E-01     3.4555E-07     4.1467E-06    -8.8346E-10
    9        -6.000868690959E-01     2.1395E-07     2.5674E-06    -6.0916E-10
   10        -6.000868693244E-01     1.6267E-07     1.9521E-06    -2.2851E-10
Finished density kernel iterations (  10)

Writing density kernel to file "ribbon.dkn_cond" ... done


>>> Density kernel optimised for the current NGWF basis:
     ~~~~~~~~~~~~~~~~~~~~~~~~~~~~~~~~~~~~~~~~~~~~~~~~~~~~~~~~~~~
     Total energy                =  -6.00086869324366E-01  Eh
     Estimated gap above Kc      =   2.0934E-02  Eh
     RMS occupancy error         =   4.9748E-17
     [H,K] commutator            =   1.9521E-06
     Occupancy bounds            = [  0.000:  1.000]
     ~~~~~~~~~~~~~~~~~~~~~~~~~~~~~~~~~~~~~~~~~~~~~~~~~~~~~~~~~~~




################################################################################
######################### COND NGWF CG iteration  004 ##########################
################################################################################

>>> Checking for convergence of NGWFs:   NOT CONVERGED
  ========================================================================
         NGWF RMS gradient =  1.1226E-05 >  2.0000E-06  | above tolerance
  ========================================================================

>>> Improving NGWFs using line search:
  ========================================================================
   Predicted total energy    =      -6.00319949798847E-01 Eh
   Predicted gain in energy  =      -2.33080474481118E-04 Eh
  ========================================================================

Writing NGWFs to file "ribbon.tightbox_ngwfs_cond"....  done

>>> Optimising kernel for current NGWFs:
   iter  |      energy (Eh)       | rms gradient |  commutator  |   dE (Eh)
    1        -6.003157041183E-01     1.1504E-05     1.3805E-04
    2        -6.003166564624E-01     8.0260E-07     9.6312E-06    -9.5234E-07
    3        -6.003166616318E-01     3.8501E-07     4.6201E-06    -5.1695E-09
    4        -6.003166654542E-01     1.6374E-07     1.9649E-06    -3.8224E-09
    5        -6.003166657866E-01     1.2987E-07     1.5584E-06    -3.3238E-10
    6        -6.003166662966E-01     1.3765E-07     1.6518E-06    -5.0996E-10
    7        -6.003166667006E-01     1.2911E-07     1.5493E-06    -4.0408E-10
    8        -6.003166669177E-01     9.0535E-08     1.0864E-06    -2.1705E-10
    9        -6.003166670446E-01     5.8711E-08     7.0454E-07    -1.2687E-10
   10        -6.003166671010E-01     4.9367E-08     5.9240E-07    -5.6442E-11
Finished density kernel iterations (  10)

Writing density kernel to file "ribbon.dkn_cond" ... done


>>> Density kernel optimised for the current NGWF basis:
     ~~~~~~~~~~~~~~~~~~~~~~~~~~~~~~~~~~~~~~~~~~~~~~~~~~~~~~~~~~~
     Total energy                =  -6.00316667101013E-01  Eh
     Estimated gap above Kc      =   2.0656E-02  Eh
     RMS occupancy error         =   4.3631E-17
     [H,K] commutator            =   5.9240E-07
     Occupancy bounds            = [  0.000:  1.000]
     ~~~~~~~~~~~~~~~~~~~~~~~~~~~~~~~~~~~~~~~~~~~~~~~~~~~~~~~~~~~




################################################################################
######################### COND NGWF CG iteration  005 ##########################
################################################################################

>>> Checking for convergence of NGWFs:   NOT CONVERGED
  ========================================================================
         NGWF RMS gradient =  6.3497E-06 >  2.0000E-06  | above tolerance
  ========================================================================

>>> Improving NGWFs using line search:
  ========================================================================
   Predicted total energy    =      -6.00360059763110E-01 Eh
   Predicted gain in energy  =      -4.33926620969638E-05 Eh
  ========================================================================

Writing NGWFs to file "ribbon.tightbox_ngwfs_cond"....  done

>>> Optimising kernel for current NGWFs:
   iter  |      energy (Eh)       | rms gradient |  commutator  |   dE (Eh)
    1        -6.003601113148E-01     3.7242E-06     4.4690E-05
    2        -6.003602117438E-01     2.9159E-07     3.4991E-06    -1.0043E-07
    3        -6.003602123556E-01     9.8159E-08     1.1779E-06    -6.1179E-10
    4        -6.003602126389E-01     4.5865E-08     5.5038E-07    -2.8329E-10
    5        -6.003602126606E-01     2.6782E-08     3.2139E-07    -2.1721E-11
    6        -6.003602126780E-01     3.0259E-08     3.6310E-07    -1.7455E-11
    7        -6.003602127005E-01     2.5447E-08     3.0537E-07    -2.2455E-11
    8        -6.003602127108E-01     2.0643E-08     2.4771E-07    -1.0351E-11
    9        -6.003602127168E-01     1.1601E-08     1.3922E-07    -5.9772E-12
   10        -6.003602127201E-01     1.4907E-08     1.7888E-07    -3.2392E-12
Finished density kernel iterations (  10)

Writing density kernel to file "ribbon.dkn_cond" ... done


>>> Density kernel optimised for the current NGWF basis:
     ~~~~~~~~~~~~~~~~~~~~~~~~~~~~~~~~~~~~~~~~~~~~~~~~~~~~~~~~~~~
     Total energy                =  -6.00360212720052E-01  Eh
     Estimated gap above Kc      =   2.2578E-02  Eh
     RMS occupancy error         =   5.4772E-17
     [H,K] commutator            =   1.7888E-07
     Occupancy bounds            = [  0.000:  1.000]
     ~~~~~~~~~~~~~~~~~~~~~~~~~~~~~~~~~~~~~~~~~~~~~~~~~~~~~~~~~~~




################################################################################
######################### COND NGWF CG iteration  006 ##########################
################################################################################

>>> Checking for convergence of NGWFs: 
           ........................................................
           |         *** NGWF optimisation converged ***          |
           | RMS NGWF gradient =    0.00000184361893              |
           | Criteria satisfied:                                  |
           | -> RMS NGWF gradient lower than set threshold.       |
           ========================================================

[...]
****** Initial penalty functional value of K^{1}: Q[K^{1}] =   0.1202E-23 ******
******  Iteratively applying preconditioner on G^{1}: ******
    |STATE|    Final residue  |
      2    0.0000889600
      3    0.0000832595
      4    0.0000894822
      5    0.0000606997
      6    0.0001257156
      7    0.0001657578
      8    0.0001519790
****** Calculated RMS gradient of g_vec. RMS grad =   0.3041E-01 ******
Conjugate gradient coefficient=     1.2038357203
***** Calculated RMS gradient of search direction. RMS grad =   0.7453E-01 *****
****** Line-min: predicted omega=    0.61823980686052 *****
****** Performed line minimisation. Ideal step size Lambda =   0.5755E+00 ******

           ........................................................
           |     *** TDDFT optimisation not converged ***         |
           |       LR-TDDFT energy  =     0.61824615132585        |
           |       Change in omega  =    -0.00039286697559        |
           |       RMS gradient     =     0.03041128222480        |
           | --> Total change in omega higher than threshold      |
           ========================================================
****** Checking for convergence of individual states *****
****** Number of newly converged states:    4  *****

################################################################################
######################### LR_TDDFT CG iteration   21 ###########################
****** Initial penalty functional value of K^{1}: Q[K^{1}] =   0.7463E-24 ******
******  Iteratively applying preconditioner on G^{1}: ******
    |STATE|    Final residue  |
      6    0.0000224504
      7    0.0000392927
      8    0.0000287077
****** Calculated RMS gradient of g_vec. RMS grad =   0.8611E-02 ******
Conjugate gradient coefficient=     0.0001101728
***** Calculated RMS gradient of search direction. RMS grad =   0.1492E-01 *****
****** Line-min: predicted omega=    0.61811586782719 *****
****** Performed line minimisation. Ideal step size Lambda =   0.1183E+01 ******

           ........................................................
           |     *** TDDFT optimisation not converged ***         |
           |       LR-TDDFT energy  =     0.61811586791269        |
           |       Change in omega  =    -0.00013028341317        |
           |       RMS gradient     =     0.00861138459126        |
           | --> Total change in omega higher than threshold      |
           ========================================================

################################################################################
######################### LR_TDDFT CG iteration   22 ###########################
****** Initial penalty functional value of K^{1}: Q[K^{1}] =   0.7473E-24 ******
******  Iteratively applying preconditioner on G^{1}: ******
    |STATE|    Final residue  |
      6    0.0000813217
      7    0.0001065456
      8    0.0001425640
****** Calculated RMS gradient of g_vec. RMS grad =   0.1234E-01 ******
Conjugate gradient coefficient=     1.2744687685
***** Calculated RMS gradient of search direction. RMS grad =   0.3070E-01 *****
****** Line-min: predicted omega=    0.61798243153348 *****
****** Performed line minimisation. Ideal step size Lambda =   0.9487E+00 ******

           ........................................................
           |     *** TDDFT optimisation not converged ***         |
           |       LR-TDDFT energy  =     0.61798243474977        |
           |       Change in omega  =    -0.00013343316292        |
           |       RMS gradient     =     0.01233852408326        |
           | --> Total change in omega higher than threshold      |
           ========================================================

################################################################################
######################### LR_TDDFT CG iteration   23 ###########################
****** Initial penalty functional value of K^{1}: Q[K^{1}] =   0.7476E-24 ******
******  Iteratively applying preconditioner on G^{1}: ******
    |STATE|    Final residue  |
      6    0.0000463039
      7    0.0000730038
      8    0.0000724283
****** Calculated RMS gradient of g_vec. RMS grad =   0.8509E-02 ******
Conjugate gradient coefficient=     0.7461352920
***** Calculated RMS gradient of search direction. RMS grad =   0.2828E-01 *****
****** Line-min: predicted omega=    0.61787850982546 *****
****** Performed line minimisation. Ideal step size Lambda =   0.9872E+00 ******

           ........................................................
           |     *** TDDFT optimisation not converged ***         |
           |       LR-TDDFT energy  =     0.61787851409903        |
           |       Change in omega  =    -0.00010392065074        |
           |       RMS gradient     =     0.00850924065502        |
           | --> Total change in omega higher than threshold      |
           ========================================================

################################################################################
######################### LR_TDDFT CG iteration   24 ###########################
****** Initial penalty functional value of K^{1}: Q[K^{1}] =   0.7467E-24 ******
******  Iteratively applying preconditioner on G^{1}: ******
    |STATE|    Final residue  |
      6    0.0000156601
      7    0.0000767361
      8    0.0001205821
****** Calculated RMS gradient of g_vec. RMS grad =   0.9198E-02 ******
Conjugate gradient coefficient=     1.0537674530
***** Calculated RMS gradient of search direction. RMS grad =   0.3711E-01 *****
****** Line-min: predicted omega=    0.61767099174262 *****
****** Performed line minimisation. Ideal step size Lambda =   0.1872E+01 ******

           ........................................................
           |     *** TDDFT optimisation not converged ***         |
           |       LR-TDDFT energy  =     0.61767112637644        |
           |       Change in omega  =    -0.00020738772259        |
           |       RMS gradient     =     0.00919794815865        |
           | --> Total change in omega higher than threshold      |
           ========================================================

################################################################################
######################### LR_TDDFT CG iteration   25 ###########################
****** Initial penalty functional value of K^{1}: Q[K^{1}] =   0.7384E-24 ******
******  Iteratively applying preconditioner on G^{1}: ******
    |STATE|    Final residue  |
      6    0.0000762787
      7    0.0000413296
      8    0.0000941017
****** Calculated RMS gradient of g_vec. RMS grad =   0.8494E-02 ******
Conjugate gradient coefficient=     0.8259189035
***** Calculated RMS gradient of search direction. RMS grad =   0.3742E-01 *****
****** Line-min: predicted omega=    0.61751243109812 *****
****** Performed line minimisation. Ideal step size Lambda =   0.1722E+01 ******

           ........................................................
           |     *** TDDFT optimisation not converged ***         |
           |       LR-TDDFT energy  =     0.61751252697797        |
           |       Change in omega  =    -0.00015859939847        |
           |       RMS gradient     =     0.00849381128284        |
           | --> Total change in omega higher than threshold      |
           ========================================================
****** Checking for convergence of individual states *****
****** Number of newly converged states:    2  *****

################################################################################
######################### LR_TDDFT CG iteration   26 ###########################
****** Initial penalty functional value of K^{1}: Q[K^{1}] =   0.7769E-25 ******
******  Iteratively applying preconditioner on G^{1}: ******
    |STATE|    Final residue  |
      8    0.0001939289
****** Calculated RMS gradient of g_vec. RMS grad =   0.8617E-02 ******
Conjugate gradient coefficient=     0.0001131884
***** Calculated RMS gradient of search direction. RMS grad =   0.2585E-01 *****
****** Line-min: predicted omega=    0.61746568978629 *****
****** Performed line minimisation. Ideal step size Lambda =   0.4138E+00 ******

           ........................................................
           |     *** TDDFT optimisation converged ***             |
           |       LR-TDDFT energy  =     0.61746568978670        |
           |       Change in omega  =    -0.00004683719127        |
           |       RMS gradient     =     0.00861689894357        |
           | --> Total change in omega lower than threshold       |
           ========================================================

             |ITER|    Total Energy   |     Penalty value      |     step       
               1    5.5642183461      0.2364435478E-25         0.0000000000
               2    2.1541611506      0.5826628665E-24         3.1883404136
               3    1.5263908357      0.9960560491E-24         0.7303566995
               4    0.9316647313      0.1223269230E-23         0.6600887223
               5    0.7290608931      0.1279877919E-23         0.4697018057
               6    0.6774821509      0.1278991769E-23         0.4641382456
               7    0.6440137519      0.1211745039E-23         0.8129247842
               8    0.6337702072      0.1218477461E-23         0.6245084931
               9    0.6256743397      0.1220740659E-23         0.8334608965
              10    0.6219417412      0.1259379279E-23         0.7380225677
              11    0.6189376704      0.1295150871E-23         0.7662667607
              12    0.6167782336      0.1352205973E-23         0.8982166258
              13    0.6148839467      0.1405607511E-23         0.8392584811
              14    0.6135991941      0.1448629898E-23         0.7312119061
              15    0.6122762796      0.1503747761E-23         0.8136898380
              16    0.6205287325      0.1057715980E-23         1.4720398837
              17    0.6198152798      0.1114630817E-23         0.9262769447
              18    0.6192172106      0.1164977644E-23         1.0318833899
              19    0.6186390183      0.1201695294E-23         1.0433854345
              20    0.6182461513      0.1212712671E-23         0.5754775664
              21    0.6181158679      0.7473066403E-24         1.1825433647
              22    0.6179824347      0.7475714594E-24         0.9487066622
              23    0.6178785141      0.7466628274E-24         0.9872070178
              24    0.6176711264      0.7383511008E-24         1.8724717276
              25    0.6175125270      0.7290725424E-24         1.7218435869
              26    0.6174656898      0.7904135221E-25         0.4137984828

               |Excitation|    d_x (in D)   |     d_y (in D)  |    d_z (in D)   
                       1    0.20944532E+01   -0.17212650E-03   -0.98405302E-01
                       2    0.54039560E-02    0.20978892E-02   -0.12321410E+01
                       3   -0.16147397E-01    0.48755709E-03   -0.29005042E+00
                       4   -0.12858295E+00    0.17140704E-02    0.47802061E-01
                       5    0.66181675E-03   -0.50430731E-03    0.54536324E-01
                       6    0.82660859E-01   -0.19013319E-02    0.25447043E-01
                       7   -0.66012846E-01    0.39819913E-02   -0.63153900E-01
                       8    0.11484250E+01    0.50202287E-03   -0.40843929E+01

   |Excitation|    Energy (in Ha)   |     Oscillator Str.  | Lifetime (in ns)   
           1        0.04183687          0.37961E-01          0.46842E+03
           2        0.05065365          0.15871E-01          0.76428E+03
           3        0.05066837          0.88248E-03          0.13738E+05
           4        0.07966112          0.30944E-03          0.15850E+05
           5        0.09201795          0.56496E-04          0.65062E+05
           6        0.09206443          0.14220E-03          0.25823E+05
           7        0.09731848          0.16795E-03          0.19567E+05
           8        0.10443000          0.38797E+00          0.73559E+01
Writing "ribbon_TDDFT_response_dens_1.cube" ... done
Writing "ribbon_TDDFT_response_dens_2.cube" ... done
Writing "ribbon_TDDFT_response_dens_3.cube" ... done
Writing "ribbon_TDDFT_response_dens_4.cube" ... done
Writing "ribbon_TDDFT_response_dens_5.cube" ... done
Writing "ribbon_TDDFT_response_dens_6.cube" ... done
Writing "ribbon_TDDFT_response_dens_7.cube" ... done
Writing "ribbon_TDDFT_response_dens_8.cube" ... done
Writing "ribbon_TDDFT_hole_dens_1.cube" ... done
Writing "ribbon_TDDFT_elec_dens_1.cube" ... done
Writing "ribbon_TDDFT_hole_dens_2.cube" ... done
Writing "ribbon_TDDFT_elec_dens_2.cube" ... done
Writing "ribbon_TDDFT_hole_dens_3.cube" ... done
Writing "ribbon_TDDFT_elec_dens_3.cube" ... done
Writing "ribbon_TDDFT_hole_dens_4.cube" ... done
Writing "ribbon_TDDFT_elec_dens_4.cube" ... done
Writing "ribbon_TDDFT_hole_dens_5.cube" ... done
Writing "ribbon_TDDFT_elec_dens_5.cube" ... done
Writing "ribbon_TDDFT_hole_dens_6.cube" ... done
Writing "ribbon_TDDFT_elec_dens_6.cube" ... done
Writing "ribbon_TDDFT_hole_dens_7.cube" ... done
Writing "ribbon_TDDFT_elec_dens_7.cube" ... done
Writing "ribbon_TDDFT_hole_dens_8.cube" ... done
Writing "ribbon_TDDFT_elec_dens_8.cube" ... done

------------------------------ TIMING INFORMATION ------------------------------
AVERAGE TIME:    1187.277s on      8 proc(s)                                    
TOTAL TIME:      1187.278s on      8 proc(s)                                    
================= AVERAGE TIMINGS FROM ALL PROCS (CUMULATIVE) ==================
|| TAG                                    #calls    cpu time   %total  Gflops ||
|| sparse_blacstospam3_real_fast_imbal  :     8        0.00s   0.000%  ------ ||
|| onetep.F90 final imbalance           :     1        0.00s   0.000%  ------ ||
|| onetep.F90 main loop imbalance       :     3        0.00s   0.000%  ------ ||
|| sparse_spam3toblacs_real_fast_imbal  :    10        0.00s   0.000%  ------ ||
|| restart_kernel_read                  :     2        0.00s   0.000%  ------ ||
|| sparse_spam3toblacs_real_fast_B2     :    80        0.00s   0.000%  ------ ||
|| sparse_set_to_garbage                :   324        0.00s   0.000%  ------ ||
|| sparse_blacstospam3_real_fast        :     8        0.01s   0.001%  ------ ||
|| ewald_calculate_energy               :     1        0.02s   0.002%  ------ ||
|| pseudopotentials_local_on_grid       :     3        0.03s   0.003%  ------ ||
|| pseudopotentials_nonlocal_mat        :    48        0.03s   0.003%  ------ ||
|| pseudo_make_structure_factor         :     3        0.06s   0.005%  ------ ||
|| dense_eigensolve                     :     3        0.07s   0.006%  ------ ||
|| restart_kernel_write                 :    27        0.09s   0.007%  ------ ||
|| sparse_init                          :     7        0.10s   0.009%  ------ ||
|| basis_extract_function_from_box      :   846        0.10s   0.009%  ------ ||
|| sparse_spam3toblacs_real_fast_B1     :    80        0.13s   0.011%  ------ ||
|| sparse_spam3toblacs_real_fast        :    10        0.14s   0.012%  ------ ||
|| ngwf_gradient_coeffs                 :    22        0.14s   0.012%  ------ ||
|| restart_ngwfs_tightbox_input         :     3        0.18s   0.015%  ------ ||
|| palser_mano_kernel_optimise          :     4        0.21s   0.017%  ------ ||
|| density_init_guess_real              :     1        0.25s   0.021%  ------ ||
|| sparse_embed_hotelling_invert_embed  :    48        0.28s   0.023%  ------ ||
|| projectors_init_fftbox_recip         :    92        0.38s   0.032%  ------ ||
|| kernel_purify                        :   492        0.45s   0.038%  ------ ||
|| kernel_fix                           :   157        0.50s   0.042%  ------ ||
|| lnv_gradient_norm                    :   157        0.62s   0.052%  ------ ||
|| energy_and_force_init_cell           :     1        0.62s   0.053%  ------ ||
|| hamiltonian_energy_components        :     1        1.00s   0.084%  ------ ||
|| restart_ngwfs_tightbox_output        :    20        1.23s   0.104%  ------ ||
|| ngwfs_initialise_from_radial         :     2        1.30s   0.110%  ------ ||
|| projectors_func_ovlp_box_spam3       :    48        2.20s   0.185%  ------ ||
|| fourier_apply_box_pair               :  1242        2.33s   0.196%  57.283 ||
|| eigenstates_calculate                :     3        2.56s   0.216%  ------ ||
|| sparse_trace                         : 26170        2.65s   0.223%  ------ ||
|| hartree_on_grid_single               :   468        2.83s   0.239%  ------ ||
|| xc_energy_potential                  :   114        4.91s   0.413%  ------ ||
|| function_ops_brappd_ketppd_spam3     :    74        4.98s   0.420%  ------ ||
|| optics_pos_mat_els                   :     1        5.01s   0.422%  ------ ||
|| basis_copy_function_to_box           : 18990        6.22s   0.524%  ------ ||
|| projectors_gradient_batch            :    44        6.64s   0.559%  ------ ||
|| cell_grid_extract_box_real           :  8388        7.31s   0.615%  ------ ||
|| integrals_kinetic_spam3              :    48        9.70s   0.817%  ------ ||
|| fourier_apply_cell_backward          :  3743        9.75s   0.821%  24.545 ||
|| fourier_apply_cell_forward           :  3740       10.77s   0.907%  22.192 ||
|| properties_calculate                 :     3       11.46s   0.965%  ------ ||
|| lr_tddft_utils_precond               :   163       11.50s   0.968%  ------ ||
|| sparse_product                       : 33089       12.85s   1.082%  ------ ||
|| density_fftbox_deposit_to_cell       :  9036       20.83s   1.754%  ------ ||
|| cell_grid_deposit_box_real           :  9690       21.03s   1.771%  ------ ||
|| xc_fxc_finite_diff                   :   704       30.27s   2.549%  ------ ||
|| ngwf_gradient_build_batch            :    44       37.64s   3.170%  ------ ||
|| ngwf_gradient_batch                  :    44       78.07s   6.575%  ------ ||
|| ngwf_gradient_lnv                    :    22       80.57s   6.786%  ------ ||
|| hamiltonian_lhxc_calculate           :   112       94.67s   7.974%  ------ ||
|| lnv_denskernel_optimise_cg           :    23      127.62s  10.749%  ------ ||
|| basis_dot_function_with_box          : 2.015M     177.96s  14.989%  ------ ||
|| basis_add_function_to_box            : 2.355M     201.17s  16.943%  ------ ||
|| density_batch_row_sums               :   996      205.68s  17.324%  ------ ||
|| integrals_locpot_mat_els_batch       :   880      212.92s  17.933%  ------ ||
|| potential_apply_to_ngwf_batch        :   880      247.99s  20.887%  ------ ||
|| ngwf_cg_optimise                     :     3      253.39s  21.342%  ------ ||
|| density_fftbox_interpolate_multiply  :  9036      267.58s  22.537%  ------ ||
|| fourier_apply_box                    : 37578      274.71s  23.138%  73.461 ||
|| density_batch_interp_deposit         :   996      293.73s  24.740%  ------ ||
|| linear_response_calc_SCF             :   352      424.05s  35.716%  ------ ||
|| integrals_locpot_dbl_grid            :   439      461.17s  38.843%  ------ ||
|| density_on_dbl_grid                  :   494      527.00s  44.387%  ------ ||
|| linear_response_operator             :  3612      834.75s  70.308%  ------ ||
|| lr_tddft_cg                          :     1      845.63s  71.224%  ------ ||
|| lr_tddft_calc_excitations            :     1      901.31s  75.914%  ------ ||
|| energy_and_forces                    :     3     1186.11s  99.901%  ------ ||
|| total_time                           :     1     1187.28s 100.000%  ------ ||
================================================================================
Overhead of generating timer report: 
- 0 ms averaging over threads,
- 1 ms ensuring consistency across MPI ranks,
- 0 ms printing in order.

Job completed: 21-08-2023 10:57 (+0100)

